LAMMPS (29 Aug 2024 - Update 2)
  using 20 OpenMP thread(s) per MPI task
variable T equal 373.15       # Target temperature in K
variable dt equal 0.5      # Timestep in fs
variable steps_per_restart equal 1000000
variable total_steps equal 5000000

units real
atom_style charge
boundary p p f  # periodic in x and y, fixed in z

# Read graphene structure (carbon only)
read_data graphene_mini.data
Reading data file ...
  orthogonal box = (0.0672 0.06 -50) to (44.28 42.6 50)
  1 by 1 by 1 MPI processor grid
  reading atoms ...
  1440 atoms
  read_data CPU = 0.008 seconds

# ReaxFF potential
pair_style reaxff NULL safezone 3.0 mincap 150
pair_coeff * * ffield.reax.FC.txt C F
Reading potential file ffield.reax.FC.txt with DATE: 2013-06-28
WARNING: Changed valency_val to valency_boc for X (src/REAXFF/reaxff_ffield.cpp:300)

# Define groups
group graphene type 1
1440 atoms in group graphene

# Charge equilibration
fix qeq all qeq/reaxff 100 0.0 10.0 1.0e-6 reaxff

# Prevent atoms from flying out of z bounds
fix wall all wall/reflect zlo EDGE zhi EDGE

# Temperature monitoring
compute tgraphene graphene temp

# ----------------------------
# Relaxation Phase
# ----------------------------
fix boxrelax all box/relax x 0.0 y 0.0 vmax 0.001
minimize 1.0e-6 1.0e-9 1000 10000

CITE-CITE-CITE-CITE-CITE-CITE-CITE-CITE-CITE-CITE-CITE-CITE-CITE

Your simulation uses code contributions which should be cited:

- pair reaxff command: doi:10.1016/j.parco.2011.08.005

@Article{Aktulga12,
 author = {H. M. Aktulga and J. C. Fogarty and S. A. Pandit and A. Y. Grama},
 title = {Parallel Reactive Molecular Dynamics: {N}umerical Methods and Algorithmic Techniques},
 journal = {Parallel Computing},
 year =    2012,
 volume =  38,
 number =  {4--5},
 pages =   {245--259}
}

- fix qeq/reaxff command: doi:10.1016/j.parco.2011.08.005

@Article{Aktulga12,
 author = {H. M. Aktulga and J. C. Fogarty and S. A. Pandit and A. Y. Grama},
 title = {Parallel Reactive Molecular Dynamics: {N}umerical Methods and Algorithmic Techniques},
 journal = {Parallel Computing},
 year =    2012,
 volume =  38,
 pages =   {245--259}
}

CITE-CITE-CITE-CITE-CITE-CITE-CITE-CITE-CITE-CITE-CITE-CITE-CITE

Neighbor list info ...
  update: every = 1 steps, delay = 0 steps, check = yes
  max neighbors/atom: 2000, page size: 100000
  master list distance cutoff = 12
  ghost atom cutoff = 12
  binsize = 6, bins = 8 8 17
  2 neighbor lists, perpetual/occasional/extra = 2 0 0
  (1) pair reaxff, perpetual
      attributes: half, newton off, ghost
      pair build: half/bin/ghost/newtoff
      stencil: full/ghost/bin/3d
      bin: standard
  (2) fix qeq/reaxff, perpetual, copy from (1)
      attributes: half, newton off
      pair build: copy
      stencil: none
      bin: none
WARNING: Energy due to 3 extra global DOFs will be included in minimizer energies
 (src/min.cpp:219)
Per MPI rank memory allocation (min/avg/max) = 161.1 | 161.1 | 161.1 Mbytes
   Step          Temp          E_pair         E_mol          TotEng         Press          Volume    
         0   0             -254657.85      0             -254657.85      97058.358      188081.25    
        13   0             -261891.62      0             -261891.62     -377.55532      192093.58    
Loop time of 1.66965 on 20 procs for 13 steps with 1440 atoms

740.7% CPU use with 1 MPI tasks x 20 OpenMP threads

Minimization stats:
  Stopping criterion = energy tolerance
  Energy initial, next-to-last, final = 
     -254657.847095546  -261891.586268926   -261891.62225262
  Force two-norm initial, final = 566410.4 660.05649
  Force max component initial, final = 400581.5 499.06258
  Final line search alpha, max atom move = 5.4496116e-07 0.00027196972
  Iterations, force evaluations = 13 16

MPI task timing breakdown:
Section |  min time  |  avg time  |  max time  |%varavg| %total
---------------------------------------------------------------
Pair    | 0.89384    | 0.89384    | 0.89384    |   0.0 | 53.53
Neigh   | 0          | 0          | 0          |   0.0 |  0.00
Comm    | 0.00018728 | 0.00018728 | 0.00018728 |   0.0 |  0.01
Output  | 0          | 0          | 0          |   0.0 |  0.00
Modify  | 1.003e-05  | 1.003e-05  | 1.003e-05  |   0.0 |  0.00
Other   |            | 0.7756     |            |       | 46.45

Nlocal:           1440 ave        1440 max        1440 min
Histogram: 1 0 0 0 0 0 0 0 0 0
Nghost:           1997 ave        1997 max        1997 min
Histogram: 1 0 0 0 0 0 0 0 0 0
Neighs:         287084 ave      287084 max      287084 min
Histogram: 1 0 0 0 0 0 0 0 0 0

Total # of neighbors = 287084
Ave neighs/atom = 199.36389
Neighbor list builds = 0
Dangerous builds = 0
unfix boxrelax

# Add F atoms
region above_graphene block 1 43 1 41 8 49 units box
region below_graphene block 1 43 1 41 -49 -8 units box
create_atoms 2 random 1440 12345 above_graphene overlap 1.5
Created 1440 atoms
  using lattice units in orthogonal box = (-0.16726735 -0.16576151 -50) to (44.514467 42.825762 50)
  create_atoms CPU = 0.032 seconds
create_atoms 2 random 1440 67890 below_graphene overlap 1.5
Created 1440 atoms
  using lattice units in orthogonal box = (-0.16726735 -0.16576151 -50) to (44.514467 42.825762 50)
  create_atoms CPU = 0.065 seconds
group gas type 2
2880 atoms in group gas

compute tgas gas temp

velocity all create ${T} 4928459 mom yes rot yes dist gaussian
velocity all create 373.15 4928459 mom yes rot yes dist gaussian

# Soft start: Langevin thermostat + NVE
fix pre_relax all nve
fix temp_relax all langevin ${T} ${T} 100.0 123456
fix temp_relax all langevin 373.15 ${T} 100.0 123456
fix temp_relax all langevin 373.15 373.15 100.0 123456
thermo 50
timestep ${dt}
timestep 0.5
run 3000
Per MPI rank memory allocation (min/avg/max) = 307.8 | 307.8 | 307.8 Mbytes
   Step          Temp          E_pair         E_mol          TotEng         Press     
        13   373.15        -248215.24      0             -243411.26      1640.4372    
        50   1301.2128     -262530.81      0             -245778.84      13154.329    
       100   1221.1472     -267590.84      0             -251869.64      10468.455    
       150   998.79673     -269647.73      0             -256789.11      9458.0573    
       200   843.4155      -271110.3       0             -260252.07      11212.914    
       250   703.21995     -271935.79      0             -262882.45      11337.02     
       300   601.40145     -272331.81      0             -264589.29      11569.76     
       350   542.19841     -272913.75      0             -265933.42      8815.0173    
       400   501.49268     -273356.78      0             -266900.5       10203.354    
       450   461.97511     -273679.22      0             -267731.7       9887.7844    
       500   453.14033     -274028.62      0             -268194.83      10299.24     
       550   421.42951     -274061.86      0             -268636.33      10702.455    
       600   403.7584      -274131.7       0             -268933.67      8566.4745    
       650   399.79725     -274213.54      0             -269066.5       10791.628    
       700   394.57043     -274279.61      0             -269199.87      10035.05     
       750   395.4551      -274373.52      0             -269282.39      9188.9693    
       800   390.60321     -274448.27      0             -269419.6       9062.2799    
       850   378.93902     -274430.23      0             -269551.73      8512.4863    
       900   383.6957      -274536.62      0             -269596.87      10087.874    
       950   379.83746     -274590.53      0             -269700.46      8921.8272    
      1000   379.90123     -274640.54      0             -269749.65      8646.4745    
      1050   376.61009     -274681.9       0             -269833.37      8738.7819    
      1100   382.11145     -274769.77      0             -269850.43      9572.6441    
      1150   377.18574     -274774.42      0             -269918.48      8718.4972    
      1200   378.49689     -274800.55      0             -269927.73      7765.6939    
      1250   384.63766     -274837.96      0             -269886.09      7654.5339    
      1300   377.42334     -274792.31      0             -269933.31      8274.1629    
      1350   376.40764     -274865.7       0             -270019.79      7982.9091    
      1400   384.91736     -274872.6       0             -269917.12      7096.6288    
      1450   384.04368     -274938.57      0             -269994.35      7862.5237    
      1500   385.82403     -275004.79      0             -270037.64      6645.5433    
      1550   376.66827     -274967.05      0             -270117.78      6793.9944    
      1600   377.65102     -275018.99      0             -270157.06      6733.2549    
      1650   385.3561      -275148.56      0             -270187.44      6877.6996    
      1700   381.56703     -275208.12      0             -270295.78      7300.4299    
      1750   379.33619     -275246.06      0             -270362.44      6358.685     
      1800   377.37183     -275262.17      0             -270403.84      7048.0371    
      1850   373.46816     -275292.39      0             -270484.31      5835.5404    
      1900   377.35337     -275304.9       0             -270446.81      6004.0076    
      1950   378.14974     -275381.01      0             -270512.67      6226.3288    
      2000   385.13622     -275428.75      0             -270470.46      5687.6114    
      2050   383.27005     -275501.77      0             -270567.51      5524.0661    
      2100   378.64265     -275472.12      0             -270597.43      6195.8639    
      2150   380.35088     -275475.43      0             -270578.75      6730.7833    
      2200   383.85007     -275511.96      0             -270570.23      5832.9304    
      2250   385.50231     -275520.77      0             -270557.77      4820.5553    
      2300   379.80954     -275532.07      0             -270642.35      5192.7292    
      2350   376.99467     -275548.01      0             -270694.53      4496.3886    
      2400   376.73483     -275569.51      0             -270719.39      4239.5582    
      2450   381.21357     -275573.74      0             -270665.95      4159.9683    
      2500   379.42319     -275599.2       0             -270714.46      3959.8756    
      2550   371.16756     -275610.82      0             -270832.37      4445.0132    
      2600   383.39328     -275717.1       0             -270781.25      4451.3493    
      2650   381.47236     -275773.63      0             -270862.51      4299.5177    
      2700   380.54156     -275775.67      0             -270876.53      4707.0166    
      2750   375.6787      -275743.55      0             -270907.02      4947.6259    
      2800   376.34583     -275789.01      0             -270943.89      4478.7741    
      2850   369.05696     -275832.53      0             -271081.24      4250.1417    
      2900   378.00262     -275908.42      0             -271041.97      3943.3085    
      2950   378.97502     -275968.73      0             -271089.76      4736.8056    
      3000   381.49277     -276021.71      0             -271110.33      4454.4032    
      3013   383.2803      -276120.81      0             -271186.41      4689.5739    
Loop time of 244.676 on 20 procs for 3000 steps with 4320 atoms

Performance: 0.530 ns/day, 45.310 hours/ns, 12.261 timesteps/s, 52.968 katom-step/s
102.5% CPU use with 1 MPI tasks x 20 OpenMP threads

MPI task timing breakdown:
Section |  min time  |  avg time  |  max time  |%varavg| %total
---------------------------------------------------------------
Pair    | 239.56     | 239.56     | 239.56     |   0.0 | 97.91
Neigh   | 0.54894    | 0.54894    | 0.54894    |   0.0 |  0.22
Comm    | 0.083143   | 0.083143   | 0.083143   |   0.0 |  0.03
Output  | 0.00241    | 0.00241    | 0.00241    |   0.0 |  0.00
Modify  | 4.1288     | 4.1288     | 4.1288     |   0.0 |  1.69
Other   |            | 0.3532     |            |       |  0.14

Nlocal:           4320 ave        4320 max        4320 min
Histogram: 1 0 0 0 0 0 0 0 0 0
Nghost:           5711 ave        5711 max        5711 min
Histogram: 1 0 0 0 0 0 0 0 0 0
Neighs:         531238 ave      531238 max      531238 min
Histogram: 1 0 0 0 0 0 0 0 0 0

Total # of neighbors = 531238
Ave neighs/atom = 122.97176
Neighbor list builds = 25
Dangerous builds = 0
unfix pre_relax
unfix temp_relax

# ----------------------------
# Main Simulation Phase
# ----------------------------
fix nvt_sim all nvt temp ${T} ${T} 50
fix nvt_sim all nvt temp 373.15 ${T} 50
fix nvt_sim all nvt temp 373.15 373.15 50

# ReaxFF bond info
fix reax_bonds all reaxff/bonds 100 bonds.reax

# Restart file every 1 million timesteps
restart ${steps_per_restart} restart.*.bin
restart 1000000 restart.*.bin

# Dump less frequently to reduce file size
dump mydmp all custom 10000 dump.lammpstrj id type x y z q
thermo 1000

run ${total_steps}
run 5000000
Per MPI rank memory allocation (min/avg/max) = 314 | 314 | 314 Mbytes
   Step          Temp          E_pair         E_mol          TotEng         Press     
      3013   383.2803      -276120.81      0             -271186.41      4689.5739    
      4000   378.60593     -277300.31      0             -272426.09      1932.1342    
      5000   378.40941     -278609.63      0             -273737.94      1120.3567    
      6000   376.80922     -280507.47      0             -275656.38      613.40241    
      7000   377.22758     -281935.86      0             -277079.39      1163.8383    
      8000   367.602       -282901.04      0             -278168.48      958.63957    
      9000   371.13103     -283824.01      0             -279046.02      579.74542    
     10000   376.71646     -284462.91      0             -279613.02      1715.5437    
     11000   370.13484     -284941.31      0             -280176.15      114.68486    
     12000   374.64922     -285593.41      0             -280770.13      1806.9406    
     13000   373.10727     -285809.94      0             -281006.51     -51.814434    
     14000   362.82261     -286013.73      0             -281342.71     -1130.1107    
     15000   376.55469     -286381.45      0             -281533.64      903.02895    
     16000   375.24194     -286805.55      0             -281974.65     -114.8654     
     17000   374.10455     -287029.73      0             -282213.46      269.70141    
     18000   365.28012     -287164.71      0             -282462.05     -1630.2618    
     19000   376.49899     -287538.11      0             -282691.02     -344.63782    
     20000   377.95641     -287670.15      0             -282804.3      -734.49144    
     21000   372.76713     -287906.21      0             -283107.16     -766.58928    
     22000   367.45501     -287931.08      0             -283200.42      2272.3135    
     23000   366.9768      -287988.44      0             -283263.94      287.8305     
     24000   370.92072     -288057.77      0             -283282.5       55.064599    
     25000   372.00878     -288278.46      0             -283489.18     -932.51646    
     26000   370.54803     -288456.88      0             -283686.4      -1140.6624    
     27000   376.16542     -288552.79      0             -283710        -866.55363    
     28000   360.07181     -288713.65      0             -284078.04      1203.2664    
     29000   373.41855     -288870.01      0             -284062.58      513.41244    
     30000   357.71005     -288843.69      0             -284238.49     -1100.2669    
     31000   373.97202     -288871.17      0             -284056.61     -2091.5275    
     32000   372.08864     -288970.66      0             -284180.35     -484.02983    
     33000   374.269       -289090.02      0             -284271.64      1206.3601    
     34000   387.43898     -289287.07      0             -284299.13     -1535.5568    
     35000   376.32642     -289188.3       0             -284343.43     -1903.41      
     36000   366.01028     -289222.22      0             -284510.16     -1596.357     
     37000   374.12383     -289438.61      0             -284622.1      -700.22398    
     38000   362.48953     -289280.97      0             -284614.23      774.6182     
     39000   372.53884     -289379.62      0             -284583.51      1875.1267    
     40000   379.8033      -289384.09      0             -284494.46      280.11143    
     41000   372.14614     -289456.13      0             -284665.07     -1619.7709    
     42000   370.07007     -289478.66      0             -284714.34     -1048.8973    
     43000   373.49627     -289495.3       0             -284686.86     -1408.3765    
     44000   366.28158     -289486.52      0             -284770.97     -219.77393    
     45000   376.74153     -289609.26      0             -284759.05     -1777.6758    
     46000   374.79712     -289606.5       0             -284781.32     -699.87612    
     47000   368.28786     -289786.44      0             -285045.06     -951.85536    
     48000   367.45131     -289790.37      0             -285059.76      173.29287    
     49000   371.56202     -289619.72      0             -284836.19     -79.336095    
     50000   369.97034     -289726.57      0             -284963.52     -2023.1097    
     51000   375.58187     -289705.97      0             -284870.69     -859.42253    
     52000   389.48086     -289896.42      0             -284882.2      -2237.7813    
     53000   367.85007     -289764.1       0             -285028.35     -2067.3283    
     54000   368.79983     -289878.54      0             -285130.57      915.72719    
     55000   375.47846     -289883.23      0             -285049.28     -1691.9093    
     56000   377.71848     -289997.6       0             -285134.81     -2938.7064    
     57000   371.6443      -290193.15      0             -285408.56      380.59056    
     58000   370.79117     -290137.54      0             -285363.93     -629.53384    
     59000   378.55786     -290192.92      0             -285319.32      1429.5109    
     60000   380.71271     -290230.79      0             -285329.45     -2448.3054    
     61000   377.09621     -290312.24      0             -285457.45     -1046.4067    
     62000   371.19262     -290296.35      0             -285517.57     -2150.6407    
     63000   381.09693     -290433.03      0             -285526.75     -1721.424     
     64000   373.96126     -290483.07      0             -285668.65      151.69632    
     65000   371.30641     -290582.94      0             -285802.69     -30.459675    
     66000   377.46707     -290597.67      0             -285738.12     -506.49464    
     67000   377.04978     -290730.12      0             -285875.94     -2303.1029    
     68000   371.3814      -290809.68      0             -286028.47     -438.13342    
     69000   374.20196     -290862.27      0             -286044.75     -615.05484    
     70000   374.48793     -291084.2       0             -286263        -1698.4438    
     71000   367.99949     -290815.8       0             -286078.13     -1337.2906    
     72000   369.74982     -290856.17      0             -286095.97      1055.6469    
     73000   373.78045     -291029.04      0             -286216.94     -2273.441     
     74000   372.20771     -291022.52      0             -286230.67      1236.7515    
     75000   370.426       -291063.02      0             -286294.11     -808.89088    
     76000   375.21949     -291076.31      0             -286245.69     -1635.3296    
     77000   374.22275     -291110.09      0             -286292.3      -402.62372    
     78000   365.80663     -291134.33      0             -286424.89      1147.9342    
     79000   370.86374     -291138.53      0             -286363.99     -1031.2816    
     80000   371.77083     -291056.44      0             -286270.22     -2241.9362    
     81000   378.2325      -291177.16      0             -286307.75      630.49687    
     82000   376.04986     -291270.22      0             -286428.91      1347.69      
     83000   370.45241     -291206.43      0             -286437.18     -912.40406    
     84000   378.40474     -291300.32      0             -286428.69     -930.14455    
     85000   375.74902     -291239.31      0             -286401.87     -102.15447    
     86000   372.14338     -291204.52      0             -286413.5      -74.165215    
     87000   369.61003     -291407.97      0             -286649.56      482.27047    
     88000   374.94694     -291461.6       0             -286634.49     -1317.2796    
     89000   376.72679     -291484.47      0             -286634.44      1829.7694    
     90000   377.80013     -291562.77      0             -286698.93     -672.92844    
     91000   367.13312     -291572.39      0             -286845.88      184.13628    
     92000   375.15838     -291694.57      0             -286864.73     -2174.6056    
     93000   375.32964     -291795.24      0             -286963.2      -176.50459    
     94000   374.6289      -291775.11      0             -286952.09     -355.76116    
     95000   386.35978     -291732.11      0             -286758.06     -1783.8207    
     96000   371.17277     -291737.05      0             -286958.53     -282.31565    
     97000   373.77821     -291843.93      0             -287031.86     -903.2309     
     98000   369.29771     -291795.27      0             -287040.89     -962.85295    
     99000   369.20935     -291764.14      0             -287010.9       484.81671    
    100000   374.42311     -291810.7       0             -286990.33      55.735866    
    101000   370.02696     -291839.95      0             -287076.18     -491.15072    
    102000   374.80624     -291928.59      0             -287103.29     -591.99999    
    103000   380.58174     -291970.77      0             -287071.11     -708.16347    
    104000   379.19137     -291942.31      0             -287060.56     -1199.9515    
    105000   372.73015     -291956.77      0             -287158.2      -2022.0274    
    106000   371.25505     -291930.95      0             -287151.37     -1511.3622    
    107000   368.57509     -292020.32      0             -287275.24      363.18453    
    108000   372.47002     -292044.76      0             -287249.54     -717.41011    
    109000   368.81624     -291967.85      0             -287219.67     -2512.9292    
    110000   371.4424      -292071.12      0             -287289.13     -2361.0761    
    111000   372.39651     -292068.58      0             -287274.3       10.924059    
    112000   376.12033     -292065.2       0             -287222.98     -600.73414    
    113000   387.44274     -292058.09      0             -287070.11     -1123.5309    
    114000   374.53619     -292209.28      0             -287387.45     -3057.8265    
    115000   374.1544      -292262.92      0             -287446.01     -2131.58      
    116000   380.11013     -292230.08      0             -287336.5       1544.7108    
    117000   369.52373     -292195.55      0             -287438.26     -570.78277    
    118000   378.61518     -292342.75      0             -287468.41      937.63826    
    119000   378.11887     -292263.51      0             -287395.56     -737.32077    
    120000   370.28531     -292336.08      0             -287568.99     -2214.156     
    121000   372.14561     -292469.83      0             -287678.78     -282.35973    
    122000   368.37117     -292467.75      0             -287725.3      -485.55242    
    123000   371.07221     -292520.95      0             -287743.72      844.8924     
    124000   372.54995     -292450.18      0             -287653.93      274.56784    
    125000   372.91578     -292493.52      0             -287692.56      237.48953    
    126000   368.0259      -292426.74      0             -287688.74     -747.80714    
    127000   369.85389     -292538.54      0             -287777        -1372.618     
    128000   365.74389     -292600.14      0             -287891.51      653.20171    
    129000   372.59188     -292575.85      0             -287779.06      490.36138    
    130000   372.01433     -292622.35      0             -287832.99     -2113.2449    
    131000   372.40619     -292644.04      0             -287849.64     -1245.8697    
    132000   364.9782      -292754.96      0             -288056.18     -1649.893     
    133000   371.84443     -292682.19      0             -287895.03     -1139.2932    
    134000   376.43198     -292824.79      0             -287978.56     -1710.8575    
    135000   384.86945     -292799.31      0             -287844.46     -474.5345     
    136000   371.71511     -292836.72      0             -288051.21     -596.08739    
    137000   370.1913      -292883.39      0             -288117.51      352.10252    
    138000   377.61645     -292874.49      0             -288013.01     -3080.0186    
    139000   372.69804     -292836.82      0             -288038.66      865.23948    
    140000   382.00243     -292912.74      0             -287994.8       1418.0489    
    141000   374.58795     -293014.84      0             -288192.35     -104.50777    
    142000   367.39956     -292961.1       0             -288231.15     -626.59722    
    143000   368.15026     -293033.14      0             -288293.53     -1500.7147    
    144000   366.037       -292902.22      0             -288189.82     -156.38421    
    145000   376.7966      -292921.7       0             -288070.77     -1519.4934    
    146000   376.17109     -293038.77      0             -288195.9       838.95647    
    147000   380.7424      -293079.09      0             -288177.36     -803.37382    
    148000   372.64804     -293061.45      0             -288263.93     -25.498083    
    149000   377.96288     -293126.68      0             -288260.74     -590.87045    
    150000   373.92464     -293247.7       0             -288433.75      1789.9029    
    151000   371.98338     -293261.41      0             -288472.45     -1544.5164    
    152000   369.64246     -293287.74      0             -288528.92     -692.00058    
    153000   369.96036     -293392.75      0             -288629.84      263.77413    
    154000   365.88981     -293360.71      0             -288650.2      -1044.0726    
    155000   371.33244     -293313.95      0             -288533.38     -1632.3509    
    156000   372.19531     -293313.75      0             -288522.06     -45.761446    
    157000   365.15841     -293447.29      0             -288746.19      305.99673    
    158000   368.57506     -293393.7       0             -288648.62      1933.4528    
    159000   366.11926     -293332.98      0             -288619.51     -541.7827     
    160000   373.09436     -293388.84      0             -288585.58      147.44949    
    161000   371.48255     -293523.84      0             -288741.33     -2664.1397    
    162000   369.16057     -293414.53      0             -288661.91      1789.7624    
    163000   371.88923     -293447.32      0             -288659.57     -88.920191    
    164000   373.90297     -293524.87      0             -288711.2      -281.24748    
    165000   376.57189     -293514.13      0             -288666.1      -2076.0315    
    166000   368.88289     -293503.95      0             -288754.91     -396.31973    
    167000   379.22221     -293571.38      0             -288689.23      326.10876    
    168000   381.11424     -293546.48      0             -288639.98      317.98981    
    169000   369.06749     -293551.04      0             -288799.63     -299.34613    
    170000   376.52396     -293603.18      0             -288755.77     -148.61524    
    171000   380.4979      -293588.7       0             -288690.12      510.78684    
    172000   369.46178     -293674.75      0             -288918.25     -1230.0229    
    173000   366.34096     -293635.87      0             -288919.56     -1370.5939    
    174000   377.25385     -293689.71      0             -288832.9       372.17586    
    175000   370.94001     -293635.45      0             -288859.93     -2593.8674    
    176000   375.40205     -293672.11      0             -288839.14     -439.06534    
    177000   377.85246     -293797.38      0             -288932.86      251.54       
    178000   367.14916     -293770.22      0             -289043.5      -114.49262    
    179000   369.18025     -293742.94      0             -288990.07     -247.30768    
    180000   374.00178     -293782.35      0             -288967.41     -1221.7671    
    181000   369.81246     -293794.91      0             -289033.9      -1147.7226    
    182000   367.07391     -293760.08      0             -289034.33     -1076.2178    
    183000   379.26927     -293808.45      0             -288925.69     -933.73239    
    184000   369.11419     -293835.25      0             -289083.23     -899.49961    
    185000   366.59668     -293886.71      0             -289167.1       19.717757    
    186000   381.10473     -293872.86      0             -288966.47      484.70225    
    187000   367.09619     -293931.61      0             -289205.57     -416.19385    
    188000   365.12912     -293999.16      0             -289298.44     -253.87262    
    189000   373.94536     -294061.74      0             -289247.53     -503.72418    
    190000   370.24626     -294069.3       0             -289302.71      901.75246    
    191000   366.61827     -294085.69      0             -289365.8      -838.24496    
    192000   364.69049     -294061.82      0             -289366.75     -734.80541    
    193000   367.09771     -294052.9       0             -289326.84      1347.4913    
    194000   377.40661     -294119.37      0             -289260.59     -2123.014     
    195000   374.02668     -294083.48      0             -289268.22     -206.50002    
    196000   371.77713     -294090.19      0             -289303.88     -439.1044     
    197000   373.48085     -294135.94      0             -289327.7      -419.52669    
    198000   376.05998     -294141.44      0             -289300        -504.86623    
    199000   369.0299      -294107.98      0             -289357.04     -697.53025    
    200000   380.65595     -294156.78      0             -289256.17      377.83356    
    201000   371.20401     -294173.89      0             -289394.97      986.68167    
    202000   372.7814      -294215.24      0             -289416.01     -63.535916    
    203000   376.68436     -294249.21      0             -289399.73     -460.45778    
    204000   375.36462     -294246.79      0             -289414.3      -1634.4706    
    205000   377.27915     -294345.23      0             -289488.09      1506.8073    
    206000   370.747       -294328.39      0             -289555.35      174.05635    
    207000   370.63716     -294311.71      0             -289540.08      80.429835    
    208000   376.70202     -294397.75      0             -289548.04     -974.58978    
    209000   375.15912     -294329.46      0             -289499.62     -1367.3037    
    210000   380.99181     -294346.12      0             -289441.18      56.344269    
    211000   372.88916     -294370.65      0             -289570.03      307.97105    
    212000   372.35806     -294414.93      0             -289621.15      394.46504    
    213000   374.32706     -294414.15      0             -289595.02     -174.34554    
    214000   376.25659     -294418.12      0             -289574.15     -705.85868    
    215000   371.99756     -294366.57      0             -289577.43      280.93866    
    216000   375.8128      -294390.76      0             -289552.51      272.77069    
    217000   373.06636     -294398.68      0             -289595.78      251.09483    
    218000   368.55846     -294483.69      0             -289738.83      1351.6482    
    219000   372.42472     -294461.81      0             -289667.17      5.9541135    
    220000   375.1195      -294476.42      0             -289647.09      874.09474    
    221000   369.03065     -294457.47      0             -289706.52     -54.612196    
    222000   367.34799     -294492.21      0             -289762.93      504.22097    
    223000   367.93651     -294544.08      0             -289807.22      220.28288    
    224000   375.76839     -294453.39      0             -289615.7       395.43892    
    225000   374.83793     -294576.08      0             -289750.37     -1350.8437    
    226000   369.75019     -294465.05      0             -289704.84      749.83859    
    227000   373.75428     -294514.78      0             -289703.02      504.77581    
    228000   382.43524     -294551.89      0             -289628.37      136.81897    
    229000   375.97978     -294576.98      0             -289736.58     -1084.1184    
    230000   369.71363     -294552.02      0             -289792.28     -817.04787    
    231000   371.7134      -294611.67      0             -289826.18      219.13314    
    232000   371.6972      -294632.05      0             -289846.77     -150.39414    
    233000   374.39485     -294636.1       0             -289816.1       774.94938    
    234000   375.57143     -294662.97      0             -289827.82     -1185.6042    
    235000   371.38652     -294694.69      0             -289913.42     -111.73003    
    236000   369.40374     -294748.45      0             -289992.7      -812.64266    
    237000   370.36891     -294749.2       0             -289981.03     -280.74306    
    238000   375.21073     -294771.56      0             -289941.06     -2100.8       
    239000   378.17497     -294761.97      0             -289893.3      -220.5637     
    240000   376.89939     -294786.33      0             -289934.08     -199.39036    
    241000   375.1668      -294770.87      0             -289940.93     -1056.6021    
    242000   371.84975     -294751.96      0             -289964.72     -1123.6443    
    243000   370.76177     -294829.77      0             -290056.54     -818.70823    
    244000   369.17574     -294860.41      0             -290107.59     -775.67687    
    245000   372.92997     -294837.64      0             -290036.5      -802.55664    
    246000   373.69953     -294873.84      0             -290062.79     -538.65431    
    247000   369.40819     -294832.62      0             -290076.82      304.30591    
    248000   373.4614      -294904.4       0             -290096.41     -666.68926    
    249000   373.91548     -294899.59      0             -290085.75      865.28456    
    250000   363.43775     -294903.54      0             -290224.6      -951.9939     
    251000   367.25003     -294919.3       0             -290191.28      240.94436    
    252000   370.97213     -294929.11      0             -290153.17     -650.24949    
    253000   361.25975     -294906.44      0             -290255.54      1308.9784    
    254000   372.19093     -294916.03      0             -290124.4      -1499.9535    
    255000   376.30032     -295009.45      0             -290164.92      48.944264    
    256000   370.52386     -294974.73      0             -290204.56     -322.72312    
    257000   365.81709     -295002.98      0             -290293.41      845.55221    
    258000   374.12069     -295038.74      0             -290222.27     -17.124106    
    259000   372.90929     -295019.82      0             -290218.94      477.36261    
    260000   371.7609      -295059.44      0             -290273.35      275.37788    
    261000   366.356       -295016.23      0             -290299.72      1195.4869    
    262000   372.6903      -295096.59      0             -290298.53     -1072.7856    
    263000   369.71368     -295078.96      0             -290319.22     -918.9567     
    264000   383.41371     -295098.89      0             -290162.78      1762.3365    
    265000   374.22205     -295118.01      0             -290300.23      373.27499    
    266000   375.76678     -295126.87      0             -290289.21      216.15341    
    267000   367.08823     -295110.43      0             -290384.49     -50.825774    
    268000   370.31604     -295186.09      0             -290418.6      -218.13628    
    269000   375.9461      -295141.26      0             -290301.29      1518.8408    
    270000   375.43579     -295128.49      0             -290295.08     -1015.2129    
    271000   374.06249     -295136.42      0             -290320.69      34.694582    
    272000   383.03092     -295169.49      0             -290238.3       481.76636    
    273000   365.09714     -295304.02      0             -290603.72      650.12916    
    274000   367.00258     -295300.3       0             -290575.47      517.10594    
    275000   376.44741     -295365.87      0             -290519.44     -474.47342    
    276000   376.41039     -295358.47      0             -290512.52     -1151.9335    
    277000   379.71178     -295379.81      0             -290491.36      223.37788    
    278000   371.68287     -295400.84      0             -290615.75      314.90327    
    279000   368.23601     -295427.71      0             -290687         652.00982    
    280000   371.37692     -295376.42      0             -290595.27      623.5062     
    281000   375.30865     -295372.09      0             -290540.32      336.66662    
    282000   375.81285     -295370.12      0             -290531.86     -545.71392    
    283000   371.64358     -295400.13      0             -290615.55     -1166.3076    
    284000   373.22572     -295434.17      0             -290629.22      232.16467    
    285000   384.09651     -295440.19      0             -290495.29     -1126.2172    
    286000   375.30599     -295389.34      0             -290557.61      234.38085    
    287000   368.21548     -295396.8       0             -290656.35      1058.9034    
    288000   368.19792     -295457.35      0             -290717.13     -120.35127    
    289000   377.97594     -295435.53      0             -290569.42     -545.79022    
    290000   377.87227     -295429.87      0             -290565.1      -883.40241    
    291000   372.43254     -295404.57      0             -290609.83     -221.10068    
    292000   367.99651     -295531.72      0             -290794.09      713.9177     
    293000   377.09927     -295499.65      0             -290644.83      670.46053    
    294000   377.6633      -295493.88      0             -290631.8       598.97761    
    295000   382.42412     -295489.94      0             -290566.57     -1236.0087    
    296000   377.11359     -295553.53      0             -290698.52      1031.2699    
    297000   363.97402     -295525.62      0             -290839.78     -24.390892    
    298000   376.82901     -295594.83      0             -290743.49      186.18193    
    299000   373.66656     -295559.63      0             -290749.01      611.30519    
    300000   369.62599     -295555.53      0             -290796.92      639.50483    
    301000   369.1667      -295651.71      0             -290899.01      1128.0791    
    302000   370.60216     -295678.4       0             -290907.22      90.267561    
    303000   370.89515     -295692.09      0             -290917.15     -864.5162     
    304000   370.24455     -295668.56      0             -290901.99      684.43924    
    305000   366.49672     -295645.66      0             -290927.33      757.79214    
    306000   384.53054     -295635.08      0             -290684.59      972.0868     
    307000   365.63096     -295674.62      0             -290967.44     -425.81464    
    308000   370.17677     -295739.22      0             -290973.52     -1153.3181    
    309000   377.7481      -295721.61      0             -290858.44      158.83593    
    310000   377.03142     -295757.82      0             -290903.88      310.23622    
    311000   374.06962     -295675.63      0             -290859.81     -235.54518    
    312000   369.47932     -295679.81      0             -290923.09     -56.963658    
    313000   375.67815     -295747.05      0             -290910.52     -1822.8981    
    314000   371.90397     -295710.17      0             -290922.23      468.39882    
    315000   365.5613      -295828.36      0             -291122.08     -555.83371    
    316000   371.00576     -295830.29      0             -291053.92     -462.62657    
    317000   369.36677     -295929.03      0             -291173.76      818.92831    
    318000   366.49203     -295848.48      0             -291130.22      816.64011    
    319000   373.48306     -295855.44      0             -291047.18      85.478616    
    320000   376.39656     -295884.13      0             -291038.36     -1037.3977    
    321000   376.18939     -295906.01      0             -291062.9      -386.07294    
    322000   377.24773     -295857.05      0             -291000.32     -2880.131     
    323000   379.33619     -295871.24      0             -290987.62      120.66604    
    324000   379.69759     -295937.67      0             -291049.4      -450.27521    
    325000   377.86946     -295961.12      0             -291096.39      753.86386    
    326000   368.9234      -296012.18      0             -291262.62     -713.70692    
    327000   366.05458     -295903.27      0             -291190.64     -1163.9836    
    328000   367.35798     -295994.45      0             -291265.04      886.33734    
    329000   375.59632     -295927.19      0             -291091.71     -1477.086     
    330000   372.05765     -295992.42      0             -291202.5      -691.83885    
    331000   375.36592     -295996.16      0             -291163.65      468.08014    
    332000   368.25879     -296025.79      0             -291284.78     -644.97881    
    333000   377.17421     -296020.47      0             -291164.68      379.7826     
    334000   377.51454     -296036.64      0             -291176.47      263.57791    
    335000   374.72049     -296001.3       0             -291177.11     -568.64759    
    336000   370.36753     -295988.37      0             -291220.22      145.47558    
    337000   372.08355     -296067.27      0             -291277.02     -132.79536    
    338000   372.46649     -296041.79      0             -291246.61     -598.89153    
    339000   370.78185     -296032.62      0             -291259.13     -949.6325     
    340000   374.42684     -296101.4       0             -291280.98     -1132.5521    
    341000   372.90246     -296045.57      0             -291244.78      336.37777    
    342000   374.52367     -296096.21      0             -291274.55     -1917.9581    
    343000   372.83488     -296126.91      0             -291326.98     -2038.93      
    344000   370.10513     -296136.96      0             -291372.18     -1492.0101    
    345000   367.55379     -296216.05      0             -291484.12     -427.83404    
    346000   367.5538      -296119.27      0             -291387.34     -912.51094    
    347000   378.91595     -296220.55      0             -291342.34     -460.08626    
    348000   366.88933     -296141.93      0             -291418.56     -681.64177    
    349000   369.40289     -296199.6       0             -291443.86     -1019.4271    
    350000   366.43456     -296189.64      0             -291472.12     -1554.1455    
    351000   372.59112     -296230.48      0             -291433.69     -2189.635     
    352000   367.43742     -296233.26      0             -291502.83     -375.9838     
    353000   383.34889     -296197.11      0             -291261.83      1107.7419    
    354000   370.74031     -296217.43      0             -291444.47      1134.6453    
    355000   373.08055     -296238.22      0             -291435.13      473.4604     
    356000   365.56112     -296226.34      0             -291520.07     -677.09097    
    357000   373.09766     -296291.71      0             -291488.4      -540.00331    
    358000   369.98819     -296249.37      0             -291486.1       530.17971    
    359000   379.81974     -296232.2       0             -291342.36     -429.64963    
    360000   375.42317     -296257.11      0             -291423.87     -1427.632     
    361000   374.85124     -296260.15      0             -291434.27     -327.19263    
    362000   377.90515     -296259.17      0             -291393.98      241.38944    
    363000   374.9455      -296290.54      0             -291463.44      1023.8375    
    364000   363.33582     -296274.95      0             -291597.32     -365.67144    
    365000   373.6468      -296273.77      0             -291463.4      -1192.5001    
    366000   369.37102     -296257.97      0             -291502.65     -644.20435    
    367000   366.81895     -296278.94      0             -291556.47     -592.46382    
    368000   372.77078     -296220.74      0             -291421.65      520.12798    
    369000   365.67782     -296294.7       0             -291586.92     -1724.6847    
    370000   379.19456     -296323.5       0             -291441.71     -811.03396    
    371000   376.00094     -296327.25      0             -291486.57     -1531.8963    
    372000   372.75716     -296325.42      0             -291526.5       633.59849    
    373000   368.35089     -296367.63      0             -291625.44     -480.63389    
    374000   377.82666     -296385.36      0             -291521.18     -396.96904    
    375000   378.79192     -296326         0             -291449.38      12.306223    
    376000   371.5368      -296313.03      0             -291529.82     -825.36706    
    377000   374.50303     -296315.27      0             -291493.87     -1110.8656    
    378000   380.23415     -296353.56      0             -291458.38     -919.15219    
    379000   380.19271     -296380.33      0             -291485.69      62.739498    
    380000   376.48573     -296325.52      0             -291478.59     -568.69023    
    381000   372.02182     -296360.37      0             -291570.91     -1030.4854    
    382000   367.83179     -296384.28      0             -291648.77     -1522.5913    
    383000   372.33524     -296411.33      0             -291617.84     -308.56729    
    384000   371.32848     -296413.03      0             -291632.51     -572.43459    
    385000   370.05113     -296392.07      0             -291627.98     -1188.0585    
    386000   373.4893      -296348.75      0             -291540.41      227.94841    
    387000   368.00315     -296395.65      0             -291657.93      577.68108    
    388000   369.64516     -296355.23      0             -291596.38     -1267.0365    
    389000   381.80151     -296367.56      0             -291452.21      526.2445     
    390000   378.68382     -296464.82      0             -291589.59     -831.26632    
    391000   377.44526     -296456.67      0             -291597.4      -499.23869    
    392000   370.43351     -296437.75      0             -291668.75     -828.03053    
    393000   375.60873     -296389.9       0             -291554.27     -1229.958     
    394000   373.4815      -296427.4       0             -291619.16     -1349.973     
    395000   378.23111     -296475.01      0             -291605.62      249.9813     
    396000   373.61135     -296497.38      0             -291687.46     -1130.6494    
    397000   368.5882      -296457.72      0             -291712.47     -915.23558    
    398000   366.02124     -296457.34      0             -291745.14      263.85389    
    399000   369.66149     -296532.61      0             -291773.55      66.421327    
    400000   370.9478      -296404.81      0             -291629.18     -750.34348    
    401000   372.21552     -296455.49      0             -291663.54     -1539.3498    
    402000   373.19363     -296522.95      0             -291718.41     -424.02011    
    403000   381.50274     -296429.42      0             -291517.91      295.9648     
    404000   376.48407     -296518.75      0             -291671.85      439.25237    
    405000   376.35805     -296454.36      0             -291609.08     -384.99491    
    406000   375.24113     -296491.29      0             -291660.39     -1483.6954    
    407000   375.83562     -296502.4       0             -291663.84     -550.36488    
    408000   380.06299     -296541.53      0             -291648.55     -1295.333     
    409000   374.55152     -296484.21      0             -291662.19     -1726.0106    
    410000   385.17163     -296538.29      0             -291579.55     -226.49526    
    411000   373.76122     -296478.87      0             -291667.02     -331.92904    
    412000   377.56866     -296523.75      0             -291662.89     -769.2755     
    413000   375.16865     -296578.97      0             -291749        -237.26767    
    414000   369.14093     -296553.76      0             -291801.4      -1158.806     
    415000   373.46052     -296534.53      0             -291726.56     -753.83077    
    416000   374.45964     -296578.83      0             -291758        -210.70946    
    417000   366.63591     -296561.34      0             -291841.23     -1419.819     
    418000   364.34706     -296536.8       0             -291846.15     -956.53231    
    419000   371.25902     -296555.15      0             -291775.52      421.70109    
    420000   386.81562     -296575.58      0             -291595.67      1479.6593    
    421000   374.10608     -296557.18      0             -291740.9      -98.661136    
    422000   375.34075     -296571.73      0             -291739.55     -292.95923    
    423000   367.50195     -296608.52      0             -291877.25     -839.76898    
    424000   374.82113     -296563.64      0             -291738.15     -575.74212    
    425000   371.05168     -296582.06      0             -291805.09     -694.24111    
    426000   370.2402      -296601.81      0             -291835.29     -227.05323    
    427000   375.66241     -296626.79      0             -291790.47      885.77774    
    428000   375.64261     -296603.76      0             -291767.7       146.54788    
    429000   375.75639     -296598.58      0             -291761.05     -289.81515    
    430000   371.53507     -296646.84      0             -291863.65      8.6227988    
    431000   372.05642     -296651.95      0             -291862.05     -181.21317    
    432000   379.10005     -296607.78      0             -291727.2      -25.855199    
    433000   374.76185     -296623.73      0             -291799        -268.8435     
    434000   375.14171     -296638.27      0             -291808.65     -181.45273    
    435000   372.96888     -296609.21      0             -291807.57     -714.8117     
    436000   372.27959     -296686.06      0             -291893.29     -569.48105    
    437000   378.2413      -296629.34      0             -291759.82      662.99407    
    438000   374.02581     -296614.65      0             -291799.4      -361.97339    
    439000   380.85482     -296685.23      0             -291782.06      135.22249    
    440000   374.0463      -296624.24      0             -291808.72     -880.67597    
    441000   367.382       -296641.24      0             -291911.52     -158.00487    
    442000   368.64308     -296679.21      0             -291933.25      153.46602    
    443000   376.21959     -296622.3       0             -291778.81     -2184.7309    
    444000   367.88328     -296576.78      0             -291840.61     -345.92778    
    445000   370.82886     -296676.73      0             -291902.63     -1411.3475    
    446000   374.95844     -296679.3       0             -291852.04     -671.26434    
    447000   384.54867     -296647.65      0             -291696.93     -545.81941    
    448000   375.44481     -296674.68      0             -291841.16      345.89563    
    449000   376.6293      -296672.63      0             -291823.86      18.626823    
    450000   375.48357     -296729.15      0             -291895.13      332.63368    
    451000   372.30741     -296690.31      0             -291897.18     -851.63618    
    452000   375.15503     -296718.03      0             -291888.24     -408.71878    
    453000   368.77788     -296663.58      0             -291915.89     -832.01663    
    454000   378.54614     -296705.77      0             -291832.32      1070.7513    
    455000   379.67027     -296664.16      0             -291776.24     -1286.39      
    456000   375.40046     -296698.54      0             -291865.59     -572.85146    
    457000   371.29157     -296685.74      0             -291905.69     -1205.1696    
    458000   374.27501     -296757.06      0             -291938.6      -970.11844    
    459000   383.34144     -296691.81      0             -291756.63     -886.83913    
    460000   380.73565     -296691.86      0             -291790.22      148.04336    
    461000   376.67737     -296753.78      0             -291904.39      22.902378    
    462000   368.99266     -296750.09      0             -291999.63     -419.62775    
    463000   375.2526      -296737.11      0             -291906.06     -1675.1465    
    464000   376.96667     -296743.39      0             -291890.28      164.43874    
    465000   374.30971     -296792.55      0             -291973.64     -1496.5882    
    466000   379.14525     -296723.32      0             -291842.15     -456.61223    
    467000   370.91337     -296756.39      0             -291981.21     -137.68268    
    468000   379.31509     -296805.84      0             -291922.49      1252.1378    
    469000   367.38119     -296820.58      0             -292090.88     -469.3373     
    470000   379.67412     -296751.2       0             -291863.23     -1451.6427    
    471000   371.87225     -296733.06      0             -291945.53     -1546.5926    
    472000   378.01635     -296829.07      0             -291962.44     -50.642335    
    473000   374.9001      -296801.82      0             -291975.31     -1199.3134    
    474000   384.39952     -296813.37      0             -291864.57     -360.23227    
    475000   370.1001      -296799.41      0             -292034.7       276.29339    
    476000   372.53749     -296835.91      0             -292039.82     -534.72037    
    477000   375.43304     -296794.08      0             -291960.71      290.57224    
    478000   382.25874     -296775.16      0             -291853.91     -1204.8509    
    479000   366.79824     -296782.01      0             -292059.81      236.62374    
    480000   371.18252     -296832.91      0             -292054.26     -802.50178    
    481000   377.36653     -296901.09      0             -292042.83     -1157.8008    
    482000   381.7599      -296827.6       0             -291912.78      1275.3239    
    483000   371.67376     -296844.85      0             -292059.88     -1206.6282    
    484000   376.90826     -296856.42      0             -292004.06      747.14329    
    485000   375.98954     -296842.24      0             -292001.71      136.162      
    486000   376.42069     -296894.1       0             -292048.02     -156.74474    
    487000   362.87904     -296888.28      0             -292216.53     -321.38516    
    488000   370.71832     -296862.65      0             -292089.98     -99.929561    
    489000   371.59691     -296918.19      0             -292134.2      -1507.9696    
    490000   386.25324     -296879.04      0             -291906.37     -612.49658    
    491000   367.96028     -296908.21      0             -292171.04     -938.27073    
    492000   381.72683     -296916.57      0             -292002.18     -1472.9524    
    493000   376.13351     -296887.27      0             -292044.88     -550.42169    
    494000   370.17433     -296923.68      0             -292158.01     -859.06043    
    495000   372.06172     -296893.23      0             -292103.27     -1421.5452    
    496000   378.22103     -296929.78      0             -292060.52      1211.9572    
    497000   373.76668     -296886.74      0             -292074.82      575.39341    
    498000   375.16768     -296934.66      0             -292104.7       372.88579    
    499000   373.10299     -296881.07      0             -292077.7      -668.62359    
    500000   381.78526     -296897.67      0             -291982.52     -421.70843    
    501000   375.90913     -296891.78      0             -292052.28     -872.4297     
    502000   366.2107      -296974.42      0             -292259.78     -801.71983    
    503000   374.15241     -296934.79      0             -292117.91      20.864237    
    504000   372.33568     -296992.56      0             -292199.06      487.02274    
    505000   376.4799      -297016.11      0             -292169.26     -671.84659    
    506000   373.99494     -296983.02      0             -292168.17     -1070.0352    
    507000   378.9131      -297004.81      0             -292126.64     -826.06307    
    508000   373.44146     -296965.95      0             -292158.23     -1354.1653    
    509000   378.48561     -296943.07      0             -292070.4      -1352.866     
    510000   368.8998      -297022.33      0             -292273.07     -1.1337703    
    511000   376.51676     -297015.04      0             -292167.72     -915.34401    
    512000   367.42708     -297006.35      0             -292276.05      508.99181    
    513000   372.59463     -297079.61      0             -292282.79     -242.34115    
    514000   377.60222     -296965.65      0             -292104.35      276.50687    
    515000   371.84627     -296999.46      0             -292212.27     -340.56287    
    516000   370.53444     -297029.22      0             -292258.92     -906.24371    
    517000   371.33584     -297011.7       0             -292231.08     -553.09089    
    518000   376.57495     -297069.23      0             -292221.16      623.86224    
    519000   374.23197     -297066.93      0             -292249.03     -653.77836    
    520000   376.33497     -297091.29      0             -292246.31      574.384      
    521000   364.62727     -297050.16      0             -292355.9      -1025.3908    
    522000   375.15062     -297027.45      0             -292197.72     -1722.9213    
    523000   374.84128     -296965.63      0             -292139.88      415.11937    
    524000   373.3158      -297046         0             -292239.89     -893.37585    
    525000   377.19629     -297054.91      0             -292198.84     -791.51091    
    526000   373.27423     -297025.57      0             -292220        -1635.8963    
    527000   383.16414     -296981.32      0             -292048.42      945.90873    
    528000   373.09731     -296989.52      0             -292186.22     -1015.7122    
    529000   375.77048     -297042.83      0             -292205.11      250.71639    
    530000   373.13905     -297043.98      0             -292240.15      26.058151    
    531000   375.62878     -297003.25      0             -292167.36     -1178.1876    
    532000   370.04384     -297015.43      0             -292251.44      818.79863    
    533000   378.22966     -296984.34      0             -292114.97      138.05477    
    534000   370.22364     -297056.17      0             -292289.87     -1151.4465    
    535000   375.5915      -297089.48      0             -292254.08     -305.46792    
    536000   379.57038     -297092.27      0             -292205.64     -323.68621    
    537000   374.18225     -297092.38      0             -292275.11     -1176.7502    
    538000   365.55097     -297062.67      0             -292356.52     -1014.0384    
    539000   381.64693     -297059.67      0             -292146.3      -1096.9693    
    540000   373.47548     -297082.44      0             -292274.27     -1282.2827    
    541000   378.96473     -297066.52      0             -292187.69     -319.55364    
    542000   365.28776     -297075.6       0             -292372.85     -744.95613    
    543000   373.29292     -297065.63      0             -292259.81     -1330.7401    
    544000   375.31714     -297087.28      0             -292255.41     -1078.1736    
    545000   373.87204     -297056         0             -292242.73      551.03301    
    546000   380.73207     -297064.3       0             -292162.71     -1579.0327    
    547000   374.9884      -297065.85      0             -292238.21     -1390.174     
    548000   370.78454     -297077.04      0             -292303.51     -223.5263     
    549000   365.82598     -297032.24      0             -292322.56     -251.93145    
    550000   382.00852     -297048.73      0             -292130.7      -865.62015    
    551000   374.87859     -297039.84      0             -292213.61     -231.09282    
    552000   367.81291     -297040.32      0             -292305.06     -1454.627     
    553000   366.30837     -297066.81      0             -292350.92     -832.59164    
    554000   376.13302     -297049.08      0             -292206.7      -98.621295    
    555000   373.83965     -297035.32      0             -292222.46     -1626.3532    
    556000   374.52823     -297047.96      0             -292226.24     -397.09819    
    557000   377.09753     -297041.06      0             -292186.26      29.977446    
    558000   374.71064     -297091.87      0             -292267.8      -416.48311    
    559000   370.11589     -297030.18      0             -292265.27     -1248.4189    
    560000   372.39237     -297042.82      0             -292248.59     -1045.5318    
    561000   375.44816     -296931.71      0             -292098.14     -165.66574    
    562000   369.806       -296988.18      0             -292227.25     -1847.6591    
    563000   375.70121     -297015.99      0             -292179.17      432.82695    
    564000   379.63754     -297034.9       0             -292147.4      -420.53491    
    565000   372.36547     -297053.83      0             -292259.95     -253.14855    
    566000   379.13592     -297062.8       0             -292181.76     -88.771126    
    567000   373.66206     -297052.34      0             -292241.77     -776.47171    
    568000   367.17643     -297008.5       0             -292281.42     -1089.5217    
    569000   375.9362      -297121.18      0             -292281.33     -376.2835     
    570000   370.25969     -297050.51      0             -292283.74     -550.88224    
    571000   381.9546      -297041.34      0             -292124.01     -1430.1855    
    572000   369.92061     -297063.44      0             -292301.04      325.45786    
    573000   371.20471     -297066.03      0             -292287.09      307.30195    
    574000   375.14448     -297050.19      0             -292220.54     -1.8165053    
    575000   371.54822     -297122.61      0             -292339.25     -583.8283     
    576000   377.69778     -297099.52      0             -292237        -303.53609    
    577000   376.97022     -297113.29      0             -292260.13     -236.4159     
    578000   374.74197     -297011.76      0             -292187.29     -53.886569    
    579000   371.01013     -297080.62      0             -292304.19     -1813.6408    
    580000   373.64446     -297037.53      0             -292227.18     -314.11648    
    581000   374.29518     -297086.83      0             -292268.11     -716.68147    
    582000   377.75079     -297084.61      0             -292221.4      -23.186625    
    583000   368.42874     -297107.75      0             -292364.55      547.49329    
    584000   368.28525     -297119.21      0             -292377.86     -399.59008    
    585000   377.68562     -297130.67      0             -292268.3      -1781.4816    
    586000   373.75197     -297122.35      0             -292310.63     -656.87677    
    587000   377.19692     -297103.81      0             -292247.73     -409.26433    
    588000   369.91935     -297060.49      0             -292298.11     -136.25372    
    589000   383.40635     -297121.55      0             -292185.54      887.11152    
    590000   377.11225     -297165.36      0             -292310.37     -770.91444    
    591000   375.04763     -297182.52      0             -292354.12     -1408.3286    
    592000   368.8043      -297121.08      0             -292373.05      117.91177    
    593000   375.77955     -297151.21      0             -292313.38      919.54475    
    594000   373.39111     -297177.47      0             -292370.39     -1125.2895    
    595000   373.8977      -297211.31      0             -292397.71     -843.75186    
    596000   369.69002     -297124.17      0             -292364.73      170.16907    
    597000   362.88615     -297093.71      0             -292421.87     -1485.9892    
    598000   371.3882      -297220.79      0             -292439.49     -854.9194     
    599000   363.98662     -297233.67      0             -292547.67     -369.25036    
    600000   374.67034     -297198.73      0             -292375.18      523.66516    
    601000   371.32002     -297147.36      0             -292366.95     -580.23456    
    602000   374.918       -297215.79      0             -292389.05      67.71627     
    603000   374.92699     -297189.69      0             -292362.84     -447.5918     
    604000   364.37411     -297280.67      0             -292589.68      557.74425    
    605000   377.87146     -297207.31      0             -292342.54     -436.1229     
    606000   374.16041     -297243.89      0             -292426.91      219.594      
    607000   362.09713     -297194.21      0             -292532.53     -899.19445    
    608000   381.1897      -297247.14      0             -292339.65      669.05139    
    609000   377.965       -297198.67      0             -292332.7       487.42619    
    610000   382.88069     -297257.6       0             -292328.35     -835.31817    
    611000   374.51522     -297240.56      0             -292419        -1216.3549    
    612000   374.40383     -297268         0             -292447.88     -837.11224    
    613000   369.67451     -297217.48      0             -292458.24     -464.52134    
    614000   373.71256     -297314.85      0             -292503.63     -322.72497    
    615000   374.37819     -297204.92      0             -292385.13     -128.09926    
    616000   367.38975     -297257.03      0             -292527.21     -74.443968    
    617000   374.71798     -297228.65      0             -292404.48     -1423.0922    
    618000   375.24737     -297214.82      0             -292383.84     -816.82467    
    619000   372.42261     -297182.81      0             -292388.2      -1127.93      
    620000   370.25804     -297212.87      0             -292446.13     -1314.997     
    621000   364.25632     -297237.87      0             -292548.39      872.4127     
    622000   367.20562     -297227.6       0             -292500.15     -689.26441    
    623000   375.08472     -297237.4       0             -292408.52      679.32924    
    624000   375.09724     -297236.4       0             -292407.35      142.5205     
    625000   370.15968     -297081.45      0             -292315.98      0.5581482    
    626000   376.45514     -297275.32      0             -292428.8      -1196.5846    
    627000   364.5425      -297195.64      0             -292502.48     -1245.2434    
    628000   376.60049     -297215.24      0             -292366.84     -1125.8964    
    629000   371.22966     -297266.44      0             -292487.19     -876.57633    
    630000   369.78748     -297281.85      0             -292521.16     -749.23346    
    631000   372.12095     -297230.38      0             -292439.65     -409.29328    
    632000   370.37172     -297291.45      0             -292523.24      268.80343    
    633000   374.78745     -297268.78      0             -292443.73     -673.88531    
    634000   375.51493     -297236.67      0             -292402.24      165.51284    
    635000   366.11752     -297255.1       0             -292541.66     -300.53921    
    636000   368.2672      -297203.12      0             -292462.01     -663.57111    
    637000   376.24741     -297209.44      0             -292365.58      137.60945    
    638000   372.07519     -297223.46      0             -292433.32     -284.28241    
    639000   374.53384     -297268.65      0             -292446.86     -479.68197    
    640000   364.52239     -297281.12      0             -292588.22     -945.52802    
    641000   365.46961     -297236.29      0             -292531.19     -1521.855     
    642000   376.01307     -297276.44      0             -292435.6      -275.87506    
    643000   369.12007     -297239.78      0             -292487.69     -1614.6137    
    644000   375.14289     -297263.07      0             -292433.43     -396.7139     
    645000   376.05369     -297313.2       0             -292471.84     -472.65208    
    646000   373.92544     -297312.08      0             -292498.12      905.52998    
    647000   371.68784     -297267.13      0             -292481.98     -898.52471    
    648000   375.63118     -297308.65      0             -292472.73     -961.08936    
    649000   375.4668      -297308.79      0             -292474.99     -728.54168    
    650000   372.45435     -297285.33      0             -292490.31     -480.77797    
    651000   375.43414     -297233.7       0             -292400.32     -1211.029     
    652000   385.43498     -297325.91      0             -292363.78     -696.526      
    653000   368.51343     -297229.07      0             -292484.78     -1612.0521    
    654000   374.58275     -297279.97      0             -292457.55      133.55946    
    655000   360.85256     -297250.73      0             -292605.07      744.16156    
    656000   373.18762     -297285.89      0             -292481.43     -968.03526    
    657000   369.83437     -297261.33      0             -292500.04      348.61612    
    658000   361.25884     -297297.84      0             -292646.95     -1237.2867    
    659000   375.86965     -297289.58      0             -292450.59     -604.29499    
    660000   380.84189     -297275.56      0             -292372.55     -1599.1076    
    661000   374.86133     -297273.08      0             -292447.07      883.40549    
    662000   369.80003     -297353.52      0             -292592.67     -416.40566    
    663000   373.35243     -297339.77      0             -292533.18     -846.893      
    664000   370.91857     -297316.43      0             -292541.18      176.76717    
    665000   369.47745     -297352.58      0             -292595.88     -423.82624    
    666000   366.19903     -297289.76      0             -292575.28     -836.9663     
    667000   369.60725     -297302.78      0             -292544.41      191.64058    
    668000   369.58003     -297286.45      0             -292528.43     -371.85188    
    669000   370.44794     -297360.55      0             -292591.36      766.35876    
    670000   374.34047     -297266.49      0             -292447.19     -343.10818    
    671000   365.20617     -297231.03      0             -292529.32      254.67088    
    672000   371.67253     -297260.4       0             -292475.45     -156.21331    
    673000   373.91827     -297313.88      0             -292500.01     -184.53203    
    674000   379.10653     -297342.49      0             -292461.83     -263.41342    
    675000   373.0791      -297255.42      0             -292452.35     -488.86711    
    676000   369.7199      -297296.89      0             -292537.07     -526.09898    
    677000   376.12935     -297303.06      0             -292460.72     -282.51937    
    678000   372.87854     -297303.08      0             -292502.6      -1336.622     
    679000   364.67906     -297329.22      0             -292634.3       461.45274    
    680000   370.38689     -297292.65      0             -292524.25     -983.40588    
    681000   374.64676     -297347.97      0             -292524.72      334.0907     
    682000   370.26188     -297322.34      0             -292555.55     -860.66832    
    683000   375.16314     -297173.02      0             -292343.12      52.830168    
    684000   381.63499     -297300.98      0             -292387.77     -546.91203    
    685000   371.65539     -297298.02      0             -292513.29      391.30715    
    686000   371.41389     -297300.74      0             -292519.11     -301.82348    
    687000   371.05784     -297350.45      0             -292573.41      333.2983     
    688000   376.13194     -297306.43      0             -292464.07     -293.51288    
    689000   373.71129     -297252.84      0             -292441.64     -1198.1059    
    690000   364.76901     -297362.01      0             -292665.93     -187.05318    
    691000   378.48736     -297331.32      0             -292458.63     -593.87496    
    692000   369.02349     -297350.23      0             -292599.37     -1098.1664    
    693000   375.60213     -297266.54      0             -292430.99      366.67557    
    694000   375.82556     -297357.16      0             -292518.73     -515.02725    
    695000   381.11323     -297317.85      0             -292411.35     -267.04128    
    696000   368.49624     -297293.29      0             -292549.23      829.99345    
    697000   367.06639     -297267.19      0             -292541.53     -592.1708     
    698000   376.26392     -297289.47      0             -292445.41     -1174.7865    
    699000   367.81567     -297287.51      0             -292552.21     -1400.9366    
    700000   371.13722     -297319.97      0             -292541.91      347.69413    
    701000   369.23366     -297289.12      0             -292535.56      501.5209     
    702000   369.79033     -297275.57      0             -292514.85     -633.65608    
    703000   368.58071     -297304.54      0             -292559.39     -780.46791    
    704000   379.76231     -297310.47      0             -292421.37     -1522.3911    
    705000   376.17949     -297297.62      0             -292454.64     -1151.0985    
    706000   376.09708     -297340.84      0             -292498.92     -620.84015    
    707000   365.40308     -297340.32      0             -292636.08     -1560.574     
    708000   371.75165     -297368.11      0             -292582.14      369.34396    
    709000   371.63122     -297325.97      0             -292541.55     -932.19226    
    710000   366.82727     -297330.26      0             -292607.68     -502.63055    
    711000   379.01526     -297315.06      0             -292435.57     -763.03665    
    712000   374.0016      -297275.62      0             -292460.68      768.6801     
    713000   366.44832     -297266.37      0             -292548.67     -1196.8184    
    714000   373.03999     -297326.21      0             -292523.65     -1039.0179    
    715000   378.27995     -297306.81      0             -292436.79     -1000.5655    
    716000   366.12627     -297325.13      0             -292611.57     -909.00154    
    717000   366.68648     -297354.77      0             -292634.01      984.84068    
    718000   366.40405     -297277.83      0             -292560.7      -559.3385     
    719000   368.98497     -297323.03      0             -292572.67      121.00815    
    720000   371.44091     -297318.64      0             -292536.66      330.46283    
    721000   368.67674     -297350.24      0             -292603.85      238.91487    
    722000   366.44909     -297312.38      0             -292594.67      1949.0673    
    723000   368.85825     -297297.21      0             -292548.48      633.95817    
    724000   368.66033     -297360.46      0             -292614.28      118.40549    
    725000   375.48271     -297305.24      0             -292471.23     -1773.6719    
    726000   376.76123     -297300.99      0             -292450.52     -1270.0466    
    727000   376.40896     -297337.68      0             -292491.75     -450.73945    
    728000   365.42025     -297325.57      0             -292621.11     -1258.9966    
    729000   377.73612     -297389.45      0             -292526.43      546.5618     
    730000   370.81276     -297339.42      0             -292565.53      37.751962    
    731000   377.36214     -297409.72      0             -292551.51     -325.51636    
    732000   375.20992     -297320.11      0             -292489.61     -549.50225    
    733000   379.16989     -297346.75      0             -292465.27     -526.69615    
    734000   375.84658     -297389.98      0             -292551.29     -281.77691    
    735000   375.94524     -297297.33      0             -292457.37      192.19917    
    736000   371.30051     -297354.34      0             -292574.17     -594.84458    
    737000   373.05638     -297362.69      0             -292559.92     -222.88207    
    738000   365.23368     -297387.1       0             -292685.04      672.43999    
    739000   373.00825     -297351.69      0             -292549.53      551.69206    
    740000   371.24171     -297367.09      0             -292587.68     -1057.0969    
    741000   376.35683     -297361.04      0             -292515.78     -596.14188    
    742000   376.69444     -297330.68      0             -292481.07      1567.4336    
    743000   375.50379     -297308.29      0             -292474.01     -129.67029    
    744000   375.54887     -297301.18      0             -292466.32      206.70559    
    745000   376.16309     -297374.89      0             -292532.12     -1756.2115    
    746000   371.86049     -297398.79      0             -292611.42      26.756939    
    747000   377.59506     -297319.25      0             -292458.04      16.243226    
    748000   371.50313     -297333.63      0             -292550.86      242.16633    
    749000   373.30893     -297345.39      0             -292539.37     -250.50216    
    750000   370.92469     -297398.16      0             -292622.84      176.44515    
    751000   380.89367     -297348.14      0             -292444.47     -1009.5498    
    752000   377.99646     -297349.71      0             -292483.34     -836.10058    
    753000   369.60097     -297392.6       0             -292634.31      13.405374    
    754000   379.55666     -297309.18      0             -292422.73     -12.684545    
    755000   376.24684     -297353.21      0             -292509.36     -135.90985    
    756000   374.01792     -297312.96      0             -292497.81     -1073.7422    
    757000   371.84969     -297323.2       0             -292535.96     -599.71136    
    758000   375.8758      -297320.36      0             -292481.29     -313.90099    
    759000   369.18851     -297342.4       0             -292589.42     -916.27872    
    760000   364.96532     -297374.14      0             -292675.53     -363.38837    
    761000   367.40551     -297365.35      0             -292635.33     -847.93593    
    762000   366.06402     -297335.17      0             -292622.42     -966.23447    
    763000   374.05591     -297341.6       0             -292525.96     -1143.5332    
    764000   380.5095      -297376.59      0             -292477.86     -677.28988    
    765000   375.17156     -297397.2       0             -292567.19     -650.86412    
    766000   373.80431     -297386.22      0             -292573.82      536.99567    
    767000   369.83559     -297375.3       0             -292614        -62.884301    
    768000   378.42933     -297426.68      0             -292554.74     -1781.5449    
    769000   373.74251     -297342.99      0             -292531.38     -491.69932    
    770000   377.78862     -297334.35      0             -292470.65     -1758.1168    
    771000   374.05902     -297365.41      0             -292549.73     -502.7933     
[...]
   4789000   376.90322     -299503.14      0             -294650.85     -307.60906    
   4790000   378.03063     -299507.7       0             -294640.88     -983.34872    
   4791000   375.86567     -299490.62      0             -294651.68      49.809337    
   4792000   369.38891     -299478.05      0             -294722.5      -854.32541    
   4793000   375.24945     -299484.42      0             -294653.41     -460.58967    
   4794000   375.06727     -299485.01      0             -294656.35     -596.15076    
   4795000   376.3381      -299502.02      0             -294657        -412.08891    
   4796000   366.12268     -299496.25      0             -294782.74     -727.60835    
   4797000   371.70558     -299475.81      0             -294690.43     -33.540452    
   4798000   375.10661     -299482.59      0             -294653.42     -511.47162    
   4799000   376.86207     -299496.92      0             -294645.15     -789.77769    
   4800000   374.27324     -299496.87      0             -294678.43     -458.18393    
   4801000   372.48779     -299498.23      0             -294702.78     -774.40021    
   4802000   368.66615     -299503.36      0             -294757.11     -626.29996    
   4803000   376.36493     -299485.27      0             -294639.9      -307.20448    
   4804000   379.405       -299496.93      0             -294612.43     -654.3005     
   4805000   373.7523      -299512.05      0             -294700.32     -503.03423    
   4806000   371.90163     -299505.88      0             -294717.97     -626.78334    
   4807000   371.50044     -299496.49      0             -294713.75     -281.79383    
   4808000   378.23203     -299503.36      0             -294633.96     -210.85167    
   4809000   371.4295      -299471.59      0             -294689.77     -890.41954    
   4810000   372.13291     -299501.13      0             -294710.24     -630.89074    
   4811000   381.62922     -299494.75      0             -294581.61     -3.5154488    
   4812000   376.44227     -299491.09      0             -294644.73     -676.20084    
   4813000   367.59929     -299483.85      0             -294751.33     -398.80541    
   4814000   369.8512      -299483         0             -294721.5      -431.27214    
   4815000   384.95876     -299517.15      0             -294561.14     -566.45626    
   4816000   368.73673     -299503.94      0             -294756.78     -685.97862    
   4817000   371.77242     -299502.46      0             -294716.21     -907.01397    
   4818000   372.06657     -299485.17      0             -294695.14     -890.41197    
   4819000   373.88938     -299488.83      0             -294675.34     -1185.3642    
   4820000   378.94443     -299501.55      0             -294622.98     -615.1138     
   4821000   372.1834      -299503.34      0             -294711.8      -136.38276    
   4822000   366.9353      -299508.12      0             -294784.15     -618.00982    
   4823000   373.15607     -299485.47      0             -294681.41     -234.1005     
   4824000   378.90414     -299498.13      0             -294620.07     -368.60547    
   4825000   372.5003      -299494.48      0             -294698.87     -682.13397    
   4826000   371.89076     -299507.3       0             -294719.53     -291.14447    
   4827000   366.69562     -299511.04      0             -294790.15     -290.88723    
   4828000   367.38538     -299494.75      0             -294764.99     -749.19149    
   4829000   373.80296     -299489.61      0             -294677.23     -225.09971    
   4830000   379.29291     -299511.75      0             -294628.69     -633.26635    
   4831000   377.77449     -299514.77      0             -294651.25     -845.06909    
   4832000   369.63702     -299484.63      0             -294725.87     -332.87919    
   4833000   366.03873     -299498.92      0             -294786.49     -694.35059    
   4834000   376.00563     -299497.76      0             -294657.01     -688.49695    
   4835000   375.00274     -299508.83      0             -294681        -591.76871    
   4836000   372.20546     -299503.72      0             -294711.9      -604.08497    
   4837000   371.42265     -299517.08      0             -294735.34     -572.79245    
   4838000   381.51596     -299485.47      0             -294573.78     -273.76882    
   4839000   371.73295     -299486.85      0             -294701.12     -119.62629    
   4840000   367.12246     -299506.23      0             -294779.86     -486.52951    
   4841000   377.64809     -299508.21      0             -294646.32     -910.01466    
   4842000   377.72548     -299488.89      0             -294626.01     -495.58828    
   4843000   371.15359     -299490.83      0             -294712.56     -735.17242    
   4844000   371.50594     -299499.4       0             -294716.59     -225.12174    
   4845000   383.84685     -299493.62      0             -294551.93     -231.76002    
   4846000   373.77151     -299521.33      0             -294709.35     -182.09832    
   4847000   370.15329     -299504.17      0             -294738.77     -935.94316    
   4848000   370.59728     -299515.21      0             -294744.1      -674.00962    
   4849000   366.50488     -299510.39      0             -294791.96     -4.9379625    
   4850000   380.2071      -299498.91      0             -294604.08     -714.70993    
   4851000   376.92674     -299501.56      0             -294648.96     -1107.9628    
   4852000   373.38552     -299500.11      0             -294693.1      -350.11358    
   4853000   372.62037     -299513.95      0             -294716.79     -387.10969    
   4854000   365.71006     -299481.05      0             -294772.86     -538.07619    
   4855000   376.30644     -299501.61      0             -294656.99     -408.35703    
   4856000   377.12343     -299489.35      0             -294634.22     -318.86539    
   4857000   372.17168     -299506.87      0             -294715.49     -735.02023    
   4858000   369.97832     -299495.22      0             -294732.07     -672.34021    
   4859000   370.4325      -299513.33      0             -294744.34     -720.41318    
   4860000   378.00912     -299507.7       0             -294641.16     -334.98817    
   4861000   379.92239     -299503.68      0             -294612.51     -392.89381    
   4862000   379.47501     -299499.9       0             -294614.5      -755.29083    
   4863000   369.3684      -299506.42      0             -294751.12     -1100.4924    
   4864000   368.70063     -299494.42      0             -294747.73     -1053.3198    
   4865000   363.8647      -299494.85      0             -294810.41     -511.12656    
   4866000   377.95311     -299515.39      0             -294649.57     -623.50773    
   4867000   376.3933      -299525.37      0             -294679.63     -235.32929    
   4868000   370.8888      -299515.1       0             -294740.23     -216.87377    
   4869000   371.79003     -299495.83      0             -294709.37     -883.41607    
   4870000   373.98503     -299505.54      0             -294690.82     -431.32727    
   4871000   372.03286     -299495.77      0             -294706.18     -315.17195    
   4872000   372.19266     -299512.31      0             -294720.66     -343.63412    
   4873000   366.3051      -299520.42      0             -294804.57     -76.085463    
   4874000   373.0946      -299513.23      0             -294709.97     -580.32297    
   4875000   380.58802     -299500.7       0             -294600.97     -44.060581    
   4876000   371.75192     -299504.64      0             -294718.67     -684.26185    
   4877000   373.80431     -299524.37      0             -294711.97     -631.2303     
   4878000   379.79293     -299509.6       0             -294620.1      -719.1012     
   4879000   373.26419     -299521.44      0             -294715.99     -809.0264     
   4880000   366.90386     -299518.56      0             -294795        -339.33277    
   4881000   375.03459     -299496.78      0             -294668.54     -836.03592    
   4882000   375.63322     -299516.79      0             -294680.85     -247.21134    
   4883000   363.74747     -299521.26      0             -294838.33     -548.37583    
   4884000   374.34141     -299519.54      0             -294700.23     -691.55648    
   4885000   380.09964     -299504.81      0             -294611.36     -359.50512    
   4886000   373.09613     -299519.04      0             -294715.76     -711.82174    
   4887000   366.9423      -299517.27      0             -294793.21     -241.18899    
   4888000   368.49753     -299511.82      0             -294767.74     -924.9184     
   4889000   370.33357     -299515.24      0             -294747.52     -1115.2826    
   4890000   382.11933     -299518.41      0             -294598.96     -448.98002    
   4891000   373.85287     -299517.17      0             -294704.15     -751.79496    
   4892000   370.39772     -299494.09      0             -294725.54     -246.46328    
   4893000   371.84982     -299517.39      0             -294730.15     -770.65749    
   4894000   370.11095     -299523.32      0             -294758.47      94.919448    
   4895000   373.52616     -299518.56      0             -294709.74     -980.7805     
   4896000   377.54359     -299513.56      0             -294653.02     -248.18262    
   4897000   374.47366     -299511.62      0             -294690.61     -710.46799    
   4898000   373.98438     -299521.67      0             -294706.95     -686.01402    
   4899000   365.03093     -299525.32      0             -294825.87     -605.74389    
   4900000   372.64587     -299524.19      0             -294726.71     -810.01328    
   4901000   373.09061     -299505.58      0             -294702.37     -638.4478     
   4902000   377.51927     -299499.2       0             -294638.97     -525.83593    
   4903000   370.63195     -299504.9       0             -294733.34     -20.164553    
   4904000   366.11194     -299532.94      0             -294819.57     -898.92158    
   4905000   376.77143     -299521.76      0             -294671.16     -596.47958    
   4906000   377.00291     -299510.27      0             -294656.69     -634.40806    
   4907000   377.48546     -299510.27      0             -294650.47     -374.03028    
   4908000   370.85304     -299511.85      0             -294737.44     -320.66433    
   4909000   371.01534     -299527.13      0             -294750.63     -723.18827    
   4910000   376.09202     -299516.24      0             -294674.39     -727.82085    
   4911000   379.96018     -299523.12      0             -294631.46     -478.56212    
   4912000   365.28324     -299515.7       0             -294813.01     -274.81764    
   4913000   369.41775     -299517.26      0             -294761.34     -280.9318     
   4914000   377.04654     -299538.13      0             -294683.99     -773.27336    
   4915000   370.79679     -299515.86      0             -294742.18     -804.19047    
   4916000   370.19463     -299522.24      0             -294756.31     -372.14839    
   4917000   380.3328      -299493.12      0             -294596.67     -669.86676    
   4918000   371.61787     -299524.15      0             -294739.9      -510.73538    
   4919000   369.4098      -299529.55      0             -294773.73     -399.56343    
   4920000   379.2979      -299517.41      0             -294634.28     -589.14112    
   4921000   373.57842     -299530.08      0             -294720.59     -103.02816    
   4922000   367.08468     -299519.81      0             -294793.91     -555.11624    
   4923000   365.77419     -299516.49      0             -294807.47     -442.94426    
   4924000   376.86641     -299534.46      0             -294682.64     -1011.4834    
   4925000   378.71423     -299531.64      0             -294656.03     -917.56652    
   4926000   379.24445     -299541.9       0             -294659.46     -395.77991    
   4927000   372.25048     -299523.47      0             -294731.08     -660.18043    
   4928000   365.76489     -299516.89      0             -294807.99     -636.60417    
   4929000   371.83146     -299532.83      0             -294745.82     -832.47012    
   4930000   381.50053     -299519.29      0             -294607.81     -666.88536    
   4931000   372.93937     -299521.24      0             -294719.97     -479.0099     
   4932000   364.25394     -299530.67      0             -294841.22     -590.61491    
   4933000   375.29725     -299518.67      0             -294687.05     -479.47538    
   4934000   373.98038     -299514.99      0             -294700.32     -1177.2052    
   4935000   370.64021     -299521.72      0             -294750.05     -585.09166    
   4936000   372.25179     -299522.38      0             -294729.96     -481.51748    
   4937000   375.15692     -299528.26      0             -294698.45     -656.39505    
   4938000   375.29911     -299516.08      0             -294684.43     -814.19146    
   4939000   371.12077     -299527.23      0             -294749.37     -234.16151    
   4940000   367.90718     -299531.77      0             -294795.29     -688.38496    
   4941000   375.89572     -299546.65      0             -294707.32     -650.01692    
   4942000   378.02778     -299534.09      0             -294667.32     -166.36976    
   4943000   374.75687     -299518.23      0             -294693.57     -1168.5144    
   4944000   366.70156     -299501.38      0             -294780.42     -517.19915    
   4945000   369.61759     -299517.57      0             -294759.07     -369.06574    
   4946000   377.49058     -299533.01      0             -294673.16     -876.12281    
   4947000   374.45033     -299533.32      0             -294712.6      -595.39768    
   4948000   371.66438     -299518.55      0             -294733.7      -278.17381    
   4949000   370.78846     -299531.81      0             -294758.24     -1113.9799    
   4950000   376.4208      -299530.32      0             -294684.23     -170.01411    
   4951000   371.89342     -299529.76      0             -294741.96     -654.78229    
   4952000   369.71974     -299514.68      0             -294754.87     -223.67888    
   4953000   369.79312     -299523.3       0             -294762.54     -271.01494    
   4954000   375.2062      -299508.76      0             -294678.31     -773.95739    
   4955000   379.11096     -299514.29      0             -294633.57     -1064.4824    
   4956000   375.75322     -299537.65      0             -294700.16     -108.84507    
   4957000   371.71079     -299522.66      0             -294737.21     -397.88032    
   4958000   364.70417     -299518.44      0             -294823.2      -815.42865    
   4959000   372.54796     -299516.42      0             -294720.19     -1171.4502    
   4960000   378.28058     -299529.35      0             -294659.32     -607.26399    
   4961000   380.64066     -299530.88      0             -294630.47     -208.52055    
   4962000   374.20974     -299519.84      0             -294702.22     -568.85802    
   4963000   366.70831     -299506.37      0             -294785.32     -846.22118    
   4964000   369.65613     -299521.94      0             -294762.94     -709.0111     
   4965000   370.48656     -299531.35      0             -294761.66     -585.31556    
   4966000   378.43217     -299540.89      0             -294668.91     -22.960401    
   4967000   376.22918     -299513.59      0             -294669.97     -528.98895    
   4968000   367.7766      -299509.34      0             -294774.54     -935.73647    
   4969000   372.79167     -299529.07      0             -294729.71     -454.60533    
   4970000   374.27888     -299525.17      0             -294706.66     -654.46422    
   4971000   386.35201     -299527.51      0             -294553.56     -810.71179    
   4972000   374.95015     -299541.17      0             -294714.02     -1051.6018    
   4973000   370.71882     -299520.57      0             -294747.89     -344.45088    
   4974000   370.86156     -299504.21      0             -294729.7      -1117.1186    
   4975000   373.36556     -299516.9       0             -294710.15     -364.43151    
   4976000   374.46881     -299527.77      0             -294706.81     -442.99013    
   4977000   373.98085     -299525.1       0             -294710.43     -1260.23      
   4978000   369.80509     -299528.73      0             -294767.82     -467.33625    
   4979000   379.5409      -299521.61      0             -294635.36     -398.66088    
   4980000   374.56375     -299523         0             -294700.82     -600.77208    
   4981000   373.55905     -299514.33      0             -294705.08     -595.68082    
   4982000   360.33979     -299522.26      0             -294883.21     -235.92382    
   4983000   370.52767     -299525.94      0             -294755.72     -680.50267    
   4984000   380.25721     -299528.57      0             -294633.09     -444.59107    
   4985000   370.91626     -299518.95      0             -294743.73     -384.37977    
   4986000   370.71185     -299521.34      0             -294748.75     -538.87375    
   4987000   380.59022     -299531.88      0             -294632.11     -623.26233    
   4988000   375.24688     -299537.06      0             -294706.09     -618.65367    
   4989000   365.43146     -299535         0             -294830.39     -626.65126    
   4990000   377.35253     -299520.24      0             -294662.16     -635.42306    
   4991000   371.74773     -299528.5       0             -294742.57      212.72864    
   4992000   365.26357     -299523.49      0             -294821.04     -515.95622    
   4993000   371.45573     -299525.5       0             -294743.33     -1145.9463    
   4994000   371.02149     -299516.99      0             -294740.42     -515.81156    
   4995000   377.84961     -299516.84      0             -294652.36     -602.4795     
   4996000   369.11327     -299515.8       0             -294763.8      -418.67817    
   4997000   367.53587     -299517.82      0             -294786.12     -871.24937    
   4998000   372.31433     -299527.75      0             -294734.53     -424.09006    
   4999000   373.27343     -299537.84      0             -294732.28     -633.71681    
   5000000   378.39656     -299517.56      0             -294646.04     -35.584696    
   5001000   373.97807     -299513.86      0             -294699.22     -523.51823    
   5002000   368.80064     -299535.68      0             -294787.7      -583.58457    
   5003000   376.98626     -299524.36      0             -294670.99     -589.31055    
   5003013   378.30661     -299525.46      0             -294655.09     -937.9436     
Loop time of 534482 on 20 procs for 5000000 steps with 4320 atoms

Performance: 0.404 ns/day, 59.387 hours/ns, 9.355 timesteps/s, 40.413 katom-step/s
100.5% CPU use with 1 MPI tasks x 20 OpenMP threads

MPI task timing breakdown:
Section |  min time  |  avg time  |  max time  |%varavg| %total
---------------------------------------------------------------
Pair    | 5.2639e+05 | 5.2639e+05 | 5.2639e+05 |   0.0 | 98.49
Neigh   | 1222.4     | 1222.4     | 1222.4     |   0.0 |  0.23
Comm    | 164.75     | 164.75     | 164.75     |   0.0 |  0.03
Output  | 8.3981     | 8.3981     | 8.3981     |   0.0 |  0.00
Modify  | 6572.9     | 6572.9     | 6572.9     |   0.0 |  1.23
Other   |            | 125.3      |            |       |  0.02

Nlocal:           4320 ave        4320 max        4320 min
Histogram: 1 0 0 0 0 0 0 0 0 0
Nghost:           6055 ave        6055 max        6055 min
Histogram: 1 0 0 0 0 0 0 0 0 0
Neighs:         732708 ave      732708 max      732708 min
Histogram: 1 0 0 0 0 0 0 0 0 0

Total # of neighbors = 732708
Ave neighs/atom = 169.60833
Neighbor list builds = 46130
Dangerous builds = 0
Total wall time: 148:32:09
