LAMMPS (29 Aug 2024 - Update 1)
OMP_NUM_THREADS environment is not set. Defaulting to 1 thread. (src/comm.cpp:98)
  using 1 OpenMP thread(s) per MPI task
Loaded 1 plugins from C:\Users\ahmed\AppData\Local\LAMMPS 64-bit 29Aug2024\plugins
variable T equal 1673.15  # Target temperature

units real
atom_style charge
boundary p p f  # periodic in x and y, fixed in z

# Read graphene structure (carbon only)
read_data graphene_mini.data
Reading data file ...
  orthogonal box = (0.0672 0.06 -50) to (44.28 42.6 50)
  1 by 1 by 1 MPI processor grid
  reading atoms ...
  1440 atoms
  read_data CPU = 0.020 seconds

# ReaxFF potential
pair_style reaxff NULL safezone 3.0 mincap 150
pair_coeff * * ffield.reax.FC.txt C F
Reading potential file ffield.reax.FC.txt with DATE: 2013-06-28
WARNING: Changed valency_val to valency_boc for X (src/REAXFF/reaxff_ffield.cpp:294)

# Define groups
group graphene type 1
1440 atoms in group graphene

# Charge equilibration
fix qeq all qeq/reaxff 100 0.0 10.0 1.0e-6 reaxff

# Prevent atoms from flying out of z bounds
fix wall all wall/reflect zlo EDGE zhi EDGE

# Temperature monitoring
compute tgraphene graphene temp

# ----------------------------
# Relaxation Phase
# ----------------------------
fix boxrelax all box/relax x 0.0 y 0.0 vmax 0.001
minimize 1.0e-6 1.0e-9 1000 10000

CITE-CITE-CITE-CITE-CITE-CITE-CITE-CITE-CITE-CITE-CITE-CITE-CITE

Your simulation uses code contributions which should be cited:

- Type Label Framework: https://doi.org/10.1021/acs.jpcb.3c08419

@Article{Gissinger24,
 author = {Jacob R. Gissinger, Ilia Nikiforov, Yaser Afshar, Brendon Waters, Moon-ki Choi, Daniel S. Karls, Alexander Stukowski, Wonpil Im, Hendrik Heinz, Axel Kohlmeyer, and Ellad B. Tadmor},
 title = {Type Label Framework for Bonded Force Fields in LAMMPS},
 journal = {J. Phys. Chem. B},
 year =    2024,
 volume =  128,
 number =  13,
 pages =   {3282–-3297}
}

- pair reaxff command: doi:10.1016/j.parco.2011.08.005

@Article{Aktulga12,
 author = {H. M. Aktulga and J. C. Fogarty and S. A. Pandit and A. Y. Grama},
 title = {Parallel Reactive Molecular Dynamics: {N}umerical Methods and Algorithmic Techniques},
 journal = {Parallel Computing},
 year =    2012,
 volume =  38,
 number =  {4--5},
 pages =   {245--259}
}

- fix qeq/reaxff command: doi:10.1016/j.parco.2011.08.005

@Article{Aktulga12,
 author = {H. M. Aktulga and J. C. Fogarty and S. A. Pandit and A. Y. Grama},
 title = {Parallel Reactive Molecular Dynamics: {N}umerical Methods and Algorithmic Techniques},
 journal = {Parallel Computing},
 year =    2012,
 volume =  38,
 pages =   {245--259}
}

CITE-CITE-CITE-CITE-CITE-CITE-CITE-CITE-CITE-CITE-CITE-CITE-CITE

Neighbor list info ...
  update: every = 1 steps, delay = 0 steps, check = yes
  max neighbors/atom: 2000, page size: 100000
  master list distance cutoff = 12
  ghost atom cutoff = 12
  binsize = 6, bins = 8 8 17
  2 neighbor lists, perpetual/occasional/extra = 2 0 0
  (1) pair reaxff, perpetual
      attributes: half, newton off, ghost
      pair build: half/bin/ghost/newtoff
      stencil: full/ghost/bin/3d
      bin: standard
  (2) fix qeq/reaxff, perpetual, copy from (1)
      attributes: half, newton off
      pair build: copy
      stencil: none
      bin: none
WARNING: Energy due to 3 extra global DOFs will be included in minimizer energies
 (src/min.cpp:219)
Per MPI rank memory allocation (min/avg/max) = 137.1 | 137.1 | 137.1 Mbytes
   Step          Temp          E_pair         E_mol          TotEng         Press          Volume    
         0   0             -254657.85      0             -254657.85      97058.358      188081.25    
        13   0             -261891.62      0             -261891.62     -377.55532      192093.58    
Loop time of 1.93045 on 1 procs for 13 steps with 1440 atoms

99.6% CPU use with 1 MPI tasks x 1 OpenMP threads

Minimization stats:
  Stopping criterion = energy tolerance
  Energy initial, next-to-last, final = 
     -254657.847095546  -261891.586268926   -261891.62225262
  Force two-norm initial, final = 566410.4 660.05649
  Force max component initial, final = 400581.5 499.06258
  Final line search alpha, max atom move = 5.4496116e-07 0.00027196972
  Iterations, force evaluations = 13 16

MPI task timing breakdown:
Section |  min time  |  avg time  |  max time  |%varavg| %total
---------------------------------------------------------------
Pair    | 1.9284     | 1.9284     | 1.9284     |   0.0 | 99.89
Neigh   | 0          | 0          | 0          |   0.0 |  0.00
Comm    | 0.000124   | 0.000124   | 0.000124   |   0.0 |  0.01
Output  | 0          | 0          | 0          |   0.0 |  0.00
Modify  | 1.7e-05    | 1.7e-05    | 1.7e-05    |   0.0 |  0.00
Other   |            | 0.001901   |            |       |  0.10

Nlocal:           1440 ave        1440 max        1440 min
Histogram: 1 0 0 0 0 0 0 0 0 0
Nghost:           1997 ave        1997 max        1997 min
Histogram: 1 0 0 0 0 0 0 0 0 0
Neighs:         287084 ave      287084 max      287084 min
Histogram: 1 0 0 0 0 0 0 0 0 0

Total # of neighbors = 287084
Ave neighs/atom = 199.36389
Neighbor list builds = 0
Dangerous builds = 0
unfix boxrelax

velocity all create ${T} 4928459 mom yes rot yes dist gaussian
velocity all create 1673.15 4928459 mom yes rot yes dist gaussian

# Soft start: Langevin thermostat + NVE
fix pre_relax all nve
fix temp_relax all langevin ${T} ${T} 100.0 123456
fix temp_relax all langevin 1673.15 ${T} 100.0 123456
fix temp_relax all langevin 1673.15 1673.15 100.0 123456
thermo 50
timestep 0.5
run 3000
Per MPI rank memory allocation (min/avg/max) = 136 | 136 | 136 Mbytes
   Step          Temp          E_pair         E_mol          TotEng         Press     
        13   1673.15       -261891.62      0             -254714.84      1330.2956    
        50   948.34738     -257519.55      0             -253451.72      12077.318    
       100   1004.6368     -256299.27      0             -251990         10204.196    
       150   1184.1676     -256015.05      0             -250935.7       9828.1401    
       200   1232.6628     -255412.97      0             -250125.6       9023.3554    
       250   1372.7862     -255089.24      0             -249200.83      7290.2379    
       300   1456.3176     -254953.11      0             -248706.4       7494.0092    
       350   1488.3322     -254857.9       0             -248473.87      7862.5933    
       400   1547.5415     -254525.87      0             -247887.87      4615.5042    
       450   1579.4274     -254347.24      0             -247572.47      4600.3599    
       500   1552.6364     -254184.07      0             -247524.21      3917.228     
       550   1603.8357     -254368.83      0             -247489.36      4577.3       
       600   1583.987      -254037.01      0             -247242.68      4120.0051    
       650   1646.4547     -254259.04      0             -247196.76      4445.2275    
       700   1678.3712     -254289.92      0             -247090.74      5434.9042    
       750   1662.0408     -254095.64      0             -246966.51      4498.2516    
       800   1640.1883     -254115.58      0             -247080.18      5305.9462    
       850   1660.0194     -254032.84      0             -246912.37      4802.636     
       900   1683.146      -254291.83      0             -247072.16      5427.3538    
       950   1685.7562     -254016.3       0             -246785.44      4121.9618    
      1000   1697.3065     -254162.86      0             -246882.46      4026.0767    
      1050   1653.6236     -253889.35      0             -246796.32      2803.127     
      1100   1748.6583     -254117.29      0             -246616.62      3918.5463    
      1150   1704.9763     -253960.86      0             -246647.56      3196.4952    
      1200   1710.2213     -253967.16      0             -246631.36      3305.6353    
      1250   1719.8272     -254122.17      0             -246745.16      3423.7969    
      1300   1714.4448     -254266.37      0             -246912.46      3432.9977    
      1350   1627.7665     -253871.84      0             -246889.73      3371.7569    
      1400   1704.0192     -253990.1       0             -246680.9       3393.5188    
      1450   1691.2666     -254095.93      0             -246841.44      5560.5076    
      1500   1652.2741     -253986.37      0             -246899.13      4613.0279    
      1550   1696.5314     -254203.29      0             -246926.21      4421.6757    
      1600   1634.8444     -254020.52      0             -247008.04      3705.502     
      1650   1719.1904     -254213.41      0             -246839.14      3765.8921    
      1700   1707.6508     -254059.99      0             -246735.21      3988.9484    
      1750   1677.8584     -253930.91      0             -246733.93      3720.8376    
      1800   1727.9128     -254027.34      0             -246615.66      4122.9178    
      1850   1667.5316     -253814.02      0             -246661.33      3259.636     
      1900   1695.1244     -253885.03      0             -246613.99      2680.6709    
      1950   1689.7884     -253931.26      0             -246683.1       3150.2693    
      2000   1669.2261     -253949.79      0             -246789.83      2733.0171    
      2050   1685.171      -254044.06      0             -246815.71      3249.5539    
      2100   1706.9305     -254086.8       0             -246765.11      2882.743     
      2150   1638.9409     -253904.79      0             -246874.74      3048.8335    
      2200   1716.818      -254101.19      0             -246737.09      2923.0555    
      2250   1731.45       -254175.89      0             -246749.04      2682.4007    
      2300   1699.6397     -254052.05      0             -246761.64      2393.9564    
      2350   1705.8389     -254490.05      0             -247173.05      3506.1583    
      2400   1663.2442     -254016.27      0             -246881.98      3711.4641    
      2450   1644.325      -253954.46      0             -246901.31      2665.8114    
      2500   1656.1602     -254019.04      0             -246915.13      2878.4323    
      2550   1660.7581     -253972.13      0             -246848.5       2503.2412    
      2600   1683.2639     -253965.43      0             -246745.26      2267.6128    
      2650   1727.3443     -254283.78      0             -246874.53      2745.979     
      2700   1649.7773     -253958.49      0             -246881.95      2478.7208    
      2750   1670.0787     -254376.15      0             -247212.54      3311.2299    
      2800   1645.7687     -254218.24      0             -247158.9       3663.2557    
      2850   1630.6173     -254187.53      0             -247193.18      3069.4569    
      2900   1668.244      -254306.88      0             -247151.13      3232.0973    
      2950   1647.2373     -254116.42      0             -247050.78      3712.9633    
      3000   1648.8681     -254085.24      0             -247012.61      3920.3289    
      3013   1616.7986     -254062.75      0             -247127.68      3888.7363    
Loop time of 780.222 on 1 procs for 3000 steps with 1440 atoms

Performance: 0.166 ns/day, 144.486 hours/ns, 3.845 timesteps/s, 5.537 katom-step/s
57.1% CPU use with 1 MPI tasks x 1 OpenMP threads

MPI task timing breakdown:
Section |  min time  |  avg time  |  max time  |%varavg| %total
---------------------------------------------------------------
Pair    | 777.7      | 777.7      | 777.7      |   0.0 | 99.68
Neigh   | 0.20693    | 0.20693    | 0.20693    |   0.0 |  0.03
Comm    | 0.037532   | 0.037532   | 0.037532   |   0.0 |  0.00
Output  | 0.022796   | 0.022796   | 0.022796   |   0.0 |  0.00
Modify  | 2.2254     | 2.2254     | 2.2254     |   0.0 |  0.29
Other   |            | 0.0247     |            |       |  0.00

Nlocal:           1440 ave        1440 max        1440 min
Histogram: 1 0 0 0 0 0 0 0 0 0
Nghost:           1982 ave        1982 max        1982 min
Histogram: 1 0 0 0 0 0 0 0 0 0
Neighs:         284153 ave      284153 max      284153 min
Histogram: 1 0 0 0 0 0 0 0 0 0

Total # of neighbors = 284153
Ave neighs/atom = 197.32847
Neighbor list builds = 28
Dangerous builds = 0
unfix pre_relax
unfix temp_relax

# Adding F atoms
region above_graphene block 1 43 1 41 8 49 units box
region below_graphene block 1 43 1 41 -49 -8 units box
create_atoms 2 random 1440 12345 above_graphene overlap 1.5
Created 1440 atoms
  using lattice units in orthogonal box = (-0.16726735 -0.16576151 -50) to (44.514467 42.825762 50)
  create_atoms CPU = 0.040 seconds
create_atoms 2 random 1440 67890 below_graphene overlap 1.5
Created 1440 atoms
  using lattice units in orthogonal box = (-0.16726735 -0.16576151 -50) to (44.514467 42.825762 50)
  create_atoms CPU = 0.098 seconds
group gas type 2
2880 atoms in group gas
velocity gas create ${T} 4928460 mom yes rot yes dist gaussian
velocity gas create 1673.15 4928460 mom yes rot yes dist gaussian

compute tgas gas temp

# ----------------------------
# Main Simulation Phase
# ----------------------------

# Switch to full NVT
fix nvt_sim all nvt temp ${T} ${T} 50
fix nvt_sim all nvt temp 1673.15 ${T} 50
fix nvt_sim all nvt temp 1673.15 1673.15 50

# Bond analysis
fix reax_bonds all reaxff/bonds 50 bonds.reax

# Output settings
dump mydmp all custom 500 dump.lammpstrj id type x y z q
thermo 50

run 50000
Per MPI rank memory allocation (min/avg/max) = 288.8 | 288.8 | 288.8 Mbytes
   Step          Temp          E_pair         E_mol          TotEng         Press     
      3013   1653.9875     -240386.71      0             -219093.08      8180.074     
      3050   2725.6459     -255085.75      0             -219995.46      14170.471    
      3100   2600.1574     -256964.69      0             -223489.95      12508.701    
      3150   2497.3404     -259215.31      0             -227064.26      11087.465    
      3200   2299.3259     -260123.42      0             -230521.62      11637.62     
      3250   2142.8576     -261203.22      0             -233615.82      10254.157    
      3300   2030.6279     -262463.8       0             -236321.25      9437.5986    
      3350   1901.971      -263073.7       0             -238587.5       10308.884    
      3400   1798.4277     -263625.39      0             -240472.22      10080.802    
      3450   1715.401      -264053.55      0             -241969.27      9638.3958    
      3500   1661.8048     -264531.07      0             -243136.79      8902.4342    
      3550   1649.9762     -265177.13      0             -243935.14      7912.2301    
      3600   1619.1436     -265232.12      0             -244387.08      6791.4595    
      3650   1632.4738     -265476.66      0             -244460         6800.3205    
      3700   1678.3484     -265863.15      0             -244255.9       5610.6382    
      3750   1680.0612     -265511.02      0             -243881.72      5492.4509    
      3800   1694.4645     -265391.91      0             -243577.17      6126.4247    
      3850   1703.1464     -265407.57      0             -243481.07      5422.0692    
      3900   1688.5103     -265401.52      0             -243663.44      5105.6741    
      3950   1698.7039     -266007.75      0             -244138.43      5905.8201    
      4000   1675.1917     -266352.14      0             -244785.52      5664.5702    
      4050   1671.5297     -266913.81      0             -245394.34      5374.6344    
      4100   1646.6547     -267097.25      0             -245898.02      6848.6648    
      4150   1634.0077     -267283.38      0             -246246.98      4139.0335    
      4200   1633.2997     -267467.03      0             -246439.73      2639.1991    
      4250   1641.7909     -267586.64      0             -246450.03      1430.9183    
      4300   1707.7774     -268357.95      0             -246371.82      2188.6591    
      4350   1710.2897     -268289.05      0             -246270.58      2818.4089    
      4400   1708.8926     -268373.24      0             -246372.76      3138.1545    
      4450   1685.8902     -268310.24      0             -246605.89      1377.6545    
      4500   1686.1362     -268687.04      0             -246979.53      1021.8488    
      4550   1677.1724     -268978.58      0             -247386.46      1151.6892    
      4600   1673.4375     -269353.17      0             -247809.14      4299.0123    
      4650   1639.339      -269231.34      0             -248126.29      1287.3641    
      4700   1634.9115     -269326.53      0             -248278.49      3490.9925    
      4750   1667.7596     -269725.03      0             -248254.09      2655.1626    
      4800   1664.6256     -269615.89      0             -248185.3       4033.6439    
      4850   1666.8951     -269602.76      0             -248142.96      2032.1925    
      4900   1713.5091     -270304.87      0             -248244.95      2857.1053    
      4950   1687.239      -270220.01      0             -248498.29      2676.4245    
      5000   1668.4011     -270352.53      0             -248873.34      1729.6148    
      5050   1665.9085     -270650.69      0             -249203.59      2555.8061    
      5100   1652.7986     -270809.54      0             -249531.21      3165.3781    
      5150   1659.031      -271088.83      0             -249730.27      1150.0215    
      5200   1690.4993     -271609.81      0             -249846.12      1071.4898    
      5250   1695.7942     -271691.73      0             -249859.87      1498.5571    
      5300   1668.098      -271445.03      0             -249969.74      1543.224     
      5350   1671.998      -271535.36      0             -250009.86      858.55248    
      5400   1663.5516     -271499.01      0             -250082.25      70.621431    
      5450   1680.3851     -271753.24      0             -250119.77      651.61798    
      5500   1662.9469     -271602.36      0             -250193.38      1539.5974    
      5550   1688.5849     -271965.62      0             -250226.58      1128.43      
      5600   1692.319      -272178.54      0             -250391.42      1045.2872    
      5650   1673.5153     -272014.75      0             -250469.71      614.43512    
      5700   1688.8299     -272300.99      0             -250558.8       2577.0711    
      5750   1680.4705     -272277.93      0             -250643.35     -1428.9957    
      5800   1678.2248     -272348.41      0             -250742.75      185.53303    
      5850   1680.738      -272504.99      0             -250866.97      1856.2288    
      5900   1675.4752     -272599.61      0             -251029.35      294.2568     
      5950   1678.0849     -272799.4       0             -251195.54      1551.8114    
      6000   1666.8363     -272869.79      0             -251410.75     -1472.9633    
      6050   1627.1408     -272565.03      0             -251617.03      1311.225     
      6100   1689.2269     -273526.14      0             -251778.83     -842.95827    
      6150   1667.1744     -273345.07      0             -251881.67     -1044.7495    
      6200   1646.6852     -273158.02      0             -251958.4       1390.0219    
      6250   1656.4223     -273322.05      0             -251997.08      2001.1439    
      6300   1682.0147     -273638.41      0             -251983.95     -1127.675     
      6350   1687.883      -273617.7       0             -251887.69      1490.4265    
      6400   1690.9628     -273599.14      0             -251829.49     -1694.6347    
      6450   1687.8597     -273512.74      0             -251783.04     -661.40257    
      6500   1700.0701     -273765.73      0             -251878.82      373.30358    
      6550   1694.0772     -273827.05      0             -252017.3       1282.5353    
      6600   1664.0034     -273645.26      0             -252222.68     -137.23178    
      6650   1675.7429     -274026.24      0             -252452.52     -706.68665    
      6700   1675.564      -274309.33      0             -252737.92      531.82512    
      6750   1649.0933     -274157.21      0             -252926.59      785.23448    
      6800   1618.8069     -273903.48      0             -253062.77     -935.40097    
      6850   1653.3703     -274271.62      0             -252985.93     -939.61503    
      6900   1690.0338     -274594.02      0             -252836.32     -972.72869    
      6950   1671.8752     -274188.61      0             -252664.69     -2817.2378    
      7000   1681.0715     -274161.94      0             -252519.62     -2595.1919    
      7050   1702.8916     -274342.37      0             -252419.14     -1341.6042    
      7100   1690.0355     -274246.74      0             -252489.02     -2173.4544    
      7150   1681.8076     -274336.79      0             -252685        -4485.6811    
      7200   1687.8288     -274713.84      0             -252984.53      76.952042    
      7250   1645.987      -274437.13      0             -253246.49     -1710.9922    
      7300   1684.2935     -275169.02      0             -253485.22     -592.33565    
      7350   1653.079      -274893.44      0             -253611.5      -1037.4605    
      7400   1649.4029     -274935.4       0             -253700.79     -2378.8704    
      7450   1668.0796     -275123.09      0             -253648.03     -3272.3445    
      7500   1664.3176     -274975.9       0             -253549.28      543.77513    
      7550   1674.8619     -274891.1       0             -253328.73      200.71248    
      7600   1660.8857     -274559.31      0             -253176.87      2307.9485    
      7650   1666.8729     -274594.37      0             -253134.85     -2128.9876    
      7700   1713.2842     -275195.12      0             -253138.09      380.29548    
      7750   1694.8407     -275069.08      0             -253249.5      -810.28369    
      7800   1686.1182     -275144.79      0             -253437.5      -2242.5556    
      7850   1679.5563     -275265.35      0             -253642.54     -2849.9611    
      7900   1650.2327     -275107.77      0             -253862.48     -1963.6049    
      7950   1640.7111     -275084.97      0             -253962.26     -112.86692    
      8000   1670.1704     -275521.65      0             -254019.68     -1124.5867    
      8050   1652.3234     -275262.76      0             -253990.55     -80.690073    
      8100   1679.7501     -275520.65      0             -253895.35      1575.7554    
      8150   1691.9685     -275509.03      0             -253726.42      1934.7796    
      8200   1657.4692     -275014.15      0             -253675.69     -1737.8846    
      8250   1689.4903     -275393.57      0             -253642.87     -3103.498     
      8300   1675.5481     -275409.63      0             -253838.43     -2479.0814    
      8350   1653.4936     -275309.46      0             -254022.19     -1327.186     
      8400   1683.3436     -275849.2       0             -254177.64      462.82443    
      8450   1675.8856     -275924.39      0             -254348.84     -929.3446     
      8500   1667.1572     -276023.1       0             -254559.92     -769.36062    
      8550   1660.4899     -276062.2       0             -254684.86     -3467.022     
      8600   1672.9262     -276330.6       0             -254793.15     -2329.2289    
      8650   1660.6712     -276128.53      0             -254748.85     -3637.9539    
      8700   1673.6495     -276162.79      0             -254616.03     -1894.6166    
      8750   1697.7057     -276226.8       0             -254370.33      628.18914    
      8800   1664.1138     -275639.36      0             -254215.36     -1958.1812    
      8850   1706.8326     -276082.02      0             -254108.06     -4726.8509    
      8900   1710.2032     -276229.82      0             -254212.46     -1813.9074    
      8950   1716.5192     -276595.28      0             -254496.61     -1637.8664    
      9000   1661.6837     -276258.19      0             -254865.48     -1210.4318    
      9050   1638.0262     -276064.59      0             -254976.45     -3004.4258    
      9100   1660.0491     -276390.36      0             -255018.69      2051.9693    
      9150   1684.2945     -276700.53      0             -255016.73     -2454.3101    
      9200   1664.9024     -276414.8       0             -254980.65     -2161.3478    
      9250   1670.5583     -276415.67      0             -254908.7      -1252.859     
      9300   1692.8979     -276650.72      0             -254856.16     -875.33888    
      9350   1698.2619     -276636.27      0             -254772.64     -2856.2458    
      9400   1707.3694     -276669         0             -254688.12     -1352.2002    
      9450   1704.7404     -276591.64      0             -254644.6      -2067.1091    
      9500   1674.9192     -276414.26      0             -254851.15     -2857.0476    
      9550   1625.2955     -275973.84      0             -255049.59     -3814.9241    
      9600   1654.2657     -276526.41      0             -255229.2      -2221.3916    
      9650   1700.3493     -277251.16      0             -255360.67     -654.51714    
      9700   1700.5235     -277438.12      0             -255545.37     -5358.5718    
      9750   1658.2865     -277007.43      0             -255658.45     -3462.1252    
      9800   1627.5956     -276686.7       0             -255732.84     -802.57128    
      9850   1650.2665     -276836.11      0             -255590.38     -3449.9906    
      9900   1719.2976     -277327.22      0             -255192.78     -2128.9368    
      9950   1708.6282     -276873.46      0             -254876.38     -3073.5695    
     10000   1700.1218     -276596.57      0             -254709        -228.06174    
     10050   1693.9173     -276540.38      0             -254732.69     -697.91939    
     10100   1699.4357     -276822.45      0             -254943.71     -1426.4051    
     10150   1670.7798     -276774.73      0             -255264.91      189.28853    
     10200   1668.4838     -276972.41      0             -255492.15      37.96046     
     10250   1656.5285     -276847.93      0             -255521.58     -7031.4163    
     10300   1648.1304     -276761.83      0             -255543.6      -4170.228     
     10350   1667.9337     -276957.13      0             -255483.96     -1100.0235    
     10400   1659.1042     -276830.96      0             -255471.46     -2247.18      
     10450   1671.6455     -276931.87      0             -255410.91     -1482.0661    
     10500   1684.771      -276969.47      0             -255279.52     -3618.944     
     10550   1679.4412     -276701.31      0             -255079.99     -3477.5608    
     10600   1706.9668     -276923.18      0             -254947.49     -1960.7808    
     10650   1710.8084     -277018.46      0             -254993.31     -2292.9687    
     10700   1663.9594     -276745.69      0             -255323.68     -2625.7524    
     10750   1676.4463     -277269         0             -255686.23      416.62167    
     10800   1663.9929     -277330.76      0             -255908.32      1883.6741    
     10850   1658.6453     -277343.92      0             -255990.33     -5237.5045    
     10900   1689.3504     -277761.67      0             -256012.78     -3627.6832    
     10950   1615.8496     -276797.4       0             -255994.76     -3551.473     
     11000   1687.9651     -277610.83      0             -255879.76     -2550.8821    
     11050   1706.4912     -277510         0             -255540.43     -2192.0534    
     11100   1698.1364     -277105.76      0             -255243.75      1985.5307    
     11150   1713.3739     -277243.87      0             -255185.69     -1128.5778    
     11200   1706.6879     -277351.47      0             -255379.37     -329.87893    
     11250   1711.3359     -277628.84      0             -255596.9      -53.290789    
     11300   1662.0476     -277169.78      0             -255772.39     -6193.5484    
     11350   1706.9683     -277821.71      0             -255846        -1827.7907    
     11400   1663.2069     -277402.38      0             -255990.05     -5611.4392    
     11450   1672.4222     -277669.32      0             -256138.35     -5125.1182    
     11500   1648.7042     -277547.7       0             -256322.08     -4240.1454    
     11550   1640.4405     -277437.21      0             -256317.98     -748.00974    
     11600   1661.6805     -277622.95      0             -256230.28     -3966.5846    
     11650   1678.9856     -277554.31      0             -255938.85     -4644.764     
     11700   1696.4714     -277430.53      0             -255589.95     -627.87156    
     11750   1703.8632     -277285.11      0             -255349.37      1832.2095    
     11800   1736.4344     -277756.29      0             -255401.23     -3559.184     
     11850   1707.6204     -277638.53      0             -255654.42     -111.51377    
     11900   1674.6289     -277460.16      0             -255900.79     -5338.0341    
     11950   1684.1619     -277724.5       0             -256042.4      -3819.9511    
     12000   1667.0445     -277655.27      0             -256193.54     -4116.377     
     12050   1647.7713     -277566.27      0             -256352.66     -4262.0442    
     12100   1698.8477     -278405.66      0             -256534.49     -4672.4206    
     12150   1667.8682     -278146.12      0             -256673.79     -2842.8583    
     12200   1648.8211     -277968.3       0             -256741.19     -5705.8765    
     12250   1674.5603     -278098.56      0             -256540.07     -1854.2293    
     12300   1679.2214     -277816.42      0             -256197.92     -4198.0964    
     12350   1698.1152     -277702.52      0             -255840.79     -4085.1876    
     12400   1710.4741     -277852.55      0             -255831.7      -2133.985     
     12450   1709.3197     -277947.79      0             -255941.81     -1788.3798    
     12500   1710.6743     -278207.26      0             -256183.83     -2819.996     
     12550   1709.2162     -278404.5       0             -256399.85     -1651.3823    
     12600   1679.5136     -278198.4       0             -256576.14     -2280.5624    
     12650   1694.3933     -278546.02      0             -256732.2      -830.99093    
     12700   1696.5558     -278750.61      0             -256908.95     -1146.2493    
     12750   1693.801      -278859.35      0             -257053.16     -4350.5946    
     12800   1642.0833     -278331.05      0             -257190.68     -1161.0465    
     12850   1651.0883     -278411.58      0             -257155.27     -5381.8799    
     12900   1701.6342     -278777.31      0             -256870.27     -781.56913    
     12950   1661.238      -277837.03      0             -256450.06     -2552.2086    
     13000   1687.6346     -277960.01      0             -256233.21     -1805.7032    
     13050   1729.2822     -278519.53      0             -256256.55     -1312.647     
     13100   1690.2173     -278229.99      0             -256469.93     -2374.0141    
     13150   1696.9602     -278477.54      0             -256630.67     -2278.8129    
     13200   1646.2165     -277949.33      0             -256755.75     -2111.5954    
     13250   1671.5381     -278340.42      0             -256820.84     -2745.0851    
     13300   1663.6804     -278354.09      0             -256935.67     -4016.0553    
     13350   1647.4799     -278160.54      0             -256950.69     -1654.5941    
     13400   1683.5319     -278661.89      0             -256987.9      -2038.5778    
     13450   1702.8654     -278826.13      0             -256903.23      795.36409    
     13500   1688.4385     -278435.98      0             -256698.82     -4005.5402    
     13550   1706.8284     -278321.58      0             -256347.66     -2499.3785    
     13600   1711.1483     -278182.24      0             -256152.71     -4688.1925    
     13650   1699.8744     -278140.66      0             -256256.28     -2116.6452    
     13700   1674.8206     -278178.41      0             -256616.57     -943.41821    
     13750   1679.1898     -278452.92      0             -256834.83     -6689.6244    
     13800   1657.459      -278361.18      0             -257022.85     -3412.1582    
     13850   1665.6424     -278577.68      0             -257134        -3383.904     
     13900   1682.8338     -278839.4       0             -257174.4      -993.64693    
     13950   1683.6993     -278887.03      0             -257210.89      554.34422    
     14000   1678.8668     -278999.32      0             -257385.39     -3607.6778    
     14050   1704.0473     -279458.82      0             -257520.71     -981.16157    
     14100   1640.0245     -278825.24      0             -257711.37     -4961.3441    
     14150   1646.5037     -279154.97      0             -257957.69      46.606096    
     14200   1638.2454     -279308.22      0             -258217.25     -1927.392     
     14250   1621.7543     -279073.15      0             -258194.49     -383.60842    
     14300   1631.6343     -278850.04      0             -257844.18     -633.21358    
     14350   1690.4678     -279217.07      0             -257453.79     -2575.1174    
     14400   1714.1091     -279427.21      0             -257359.56     -2703.6957    
     14450   1670.2563     -278823.71      0             -257320.63     -1093.9521    
     14500   1639.4951     -278398.85      0             -257291.8      -4484.6402    
     14550   1641.7349     -278342.54      0             -257206.65     -3925.4485    
     14600   1689.2448     -278969.77      0             -257222.24     -2006.0571    
     14650   1690.518      -278933.47      0             -257169.54     -3751.9278    
     14700   1696.0442     -279002.1       0             -257167.03     -1928.3447    
     14750   1666.9306     -278699.78      0             -257239.52     -2888.4584    
     14800   1669.2369     -278942.66      0             -257452.7      -4911.9452    
     14850   1650.0894     -278898.94      0             -257655.5      -3037.5086    
     14900   1674.4185     -279452.36      0             -257895.7      -2179.8531    
     14950   1654.6309     -279375.59      0             -258073.68     -3398.0741    
     15000   1628.6983     -279106.73      0             -258138.68     -3219.5267    
     15050   1642.1        -279110.08      0             -257969.49     -4838.6203    
     15100   1658.7002     -279010.93      0             -257656.63     -5556.5114    
     15150   1696.827      -279152.55      0             -257307.4      -4118.4705    
     15200   1693.4894     -279086.25      0             -257284.07      991.4379     
     15250   1681.6903     -278970.88      0             -257320.6      -902.369      
     15300   1707.3008     -279399.82      0             -257419.83     -2405.4932    
     15350   1688.722      -279303.92      0             -257563.11     -1709.3217    
     15400   1680.0987     -279446.45      0             -257816.66     -2085.9203    
     15450   1669.9243     -279531.9       0             -258033.1       759.77324    
     15500   1652.0263     -279384.1       0             -258115.72     -4010.0537    
     15550   1644.7838     -279255.47      0             -258080.32     -3357.7148    
     15600   1688.7971     -279768.28      0             -258026.5      -1822.4608    
     15650   1654.6554     -279288.82      0             -257986.59     -2040.0404    
     15700   1680.603      -279585.56      0             -257949.27     -2927.1721    
     15750   1654.9574     -279225.01      0             -257918.9      -2294.746     
     15800   1671.0527     -279422.64      0             -257909.31     -4400.8948    
     15850   1698.9124     -279752.8       0             -257880.8      -2429.1601    
     15900   1657.2455     -279196.86      0             -257861.29     -4008.4294    
     15950   1667.6069     -279256.32      0             -257787.35     -6865.7534    
     16000   1652.5456     -279004.87      0             -257729.8      -3018.3129    
     16050   1675.8373     -279219.45      0             -257644.53     -844.00514    
     16100   1687.3439     -279311.97      0             -257588.9      -2716.4825    
     16150   1702.2624     -279442.54      0             -257527.41     -4835.8452    
     16200   1679.9819     -279257.64      0             -257629.36     -5665.2428    
     16250   1662.2879     -279115.46      0             -257714.97     -6616.8522    
     16300   1689.0773     -279621.29      0             -257875.91     -3495.3859    
     16350   1651.3359     -279311.07      0             -258051.58     -923.45103    
     16400   1665.2423     -279694.02      0             -258255.49     -1520.4368    
     16450   1665.9091     -279843.39      0             -258396.27     -2457.9339    
     16500   1661.5743     -279894.63      0             -258503.32     -5348.1753    
     16550   1656.1016     -279800.06      0             -258479.21     -1248.5963    
     16600   1630.8976     -279229.51      0             -258233.14     -3439.8689    
     16650   1684.2276     -279437.34      0             -257754.4      -2621.3853    
     16700   1700.3231     -279455.1       0             -257564.94     -4182.1923    
     16750   1699.8414     -279415.12      0             -257531.16     -1052.401     
     16800   1692.626      -279424.54      0             -257633.48     -4548.871     
     16850   1679.8851     -279406.84      0             -257779.8      -3241.6362    
     16900   1690.2968     -279744.9       0             -257983.82     -5951.2766    
     16950   1656.1405     -279503.72      0             -258182.38     -810.09436    
     17000   1651.3582     -279645.6       0             -258385.81     -6154.9734    
     17050   1646.48       -279732.81      0             -258535.83     -1543.6072    
     17100   1649.1147     -279800.22      0             -258569.33     -3675.0416    
     17150   1684.0333     -279885.09      0             -258204.64     -4390.2299    
     17200   1679.2948     -279305.29      0             -257685.85     -6833.1856    
     17250   1706.0907     -279492.29      0             -257527.88     -2628.0719    
     17300   1684.4515     -279322.02      0             -257636.19     -3679.162     
     17350   1687.8403     -279564.99      0             -257835.54     -236.29108    
     17400   1681.64       -279733.58      0             -258083.94     -4604.0855    
     17450   1679.9228     -279953.73      0             -258326.21     -1249.9791    
     17500   1639.9891     -279652.14      0             -258538.73     -3721.0912    
     17550   1661.4606     -279952.13      0             -258562.28     -731.44649    
     17600   1668.2253     -279952.85      0             -258475.92     -4913.2213    
     17650   1680.8051     -279864.99      0             -258226.1      -5785.0338    
     17700   1693.6322     -279756.86      0             -257952.84     -6049.7541    
     17750   1693.8519     -279447.13      0             -257640.28     -4143.7737    
     17800   1688.7269     -279264.54      0             -257523.67     -2368.9424    
     17850   1694.9032     -279387.91      0             -257567.52     -2027.0688    
     17900   1683.2114     -279358.54      0             -257688.68     -4525.6613    
     17950   1694.2046     -279575.56      0             -257764.17     -2586.7732    
     18000   1684.5297     -279580.82      0             -257893.98     -5149.169     
     18050   1653.6795     -279363.93      0             -258074.26     -1729.2255    
     18100   1676.7141     -279831.89      0             -258245.67     -909.82785    
     18150   1674.6129     -279978.6       0             -258419.44     -4165.5405    
     18200   1654.6592     -279864.75      0             -258562.47     -2565.209     
     18250   1670.023      -280058.43      0             -258558.35     -2510.3938    
     18300   1650.8144     -279626.04      0             -258373.26     -5866.7818    
     18350   1711.3449     -279965.69      0             -257933.63     -3250.4112    
     18400   1727.4324     -279868.8       0             -257629.63     -3076.0921    
     18450   1702.303      -279533.69      0             -257618.04     -4458.1039    
     18500   1673.2103     -279376.15      0             -257835.04     -2336.9812    
     18550   1678.2512     -279682.48      0             -258076.48     -2244.2319    
     18600   1676.4061     -279892.68      0             -258310.43     -1630.8293    
     18650   1637.8855     -279458.84      0             -258372.51     -5051.9077    
     18700   1688.6841     -280096.87      0             -258356.55     -4538.6576    
     18750   1674.3169     -279865.22      0             -258309.87     -2746.6542    
     18800   1678.6959     -279857.14      0             -258245.41     -1651.9649    
     18850   1646.2809     -279321.99      0             -258127.58     -3432.781     
     18900   1697.8669     -279763.83      0             -257905.29     -2311.6502    
     18950   1721.2309     -279710.51      0             -257551.18     -3225.9419    
     19000   1705.6368     -279356.33      0             -257397.76     -5842.7202    
     19050   1675.3        -279020.29      0             -257452.28      819.95394    
     19100   1697.2252     -279735.04      0             -257884.76     -4155.2065    
     19150   1696.6981     -280049.1       0             -258205.61     -4937.2734    
     19200   1660.3122     -279669.87      0             -258294.81     -2429.598     
     19250   1680.2619     -279907.09      0             -258275.2      -1821.0545    
     19300   1672.2055     -279823.47      0             -258295.3      -1063.1419    
     19350   1677.4986     -279889.22      0             -258292.91     -6615.3771    
     19400   1683.6442     -280049.39      0             -258373.96     -3333.1972    
     19450   1648.5339     -279685.05      0             -258461.63     -4485.5513    
     19500   1665.9426     -280020.57      0             -258573.03     -5794.7025    
     19550   1646.1756     -279833.05      0             -258639.99     -5149.299     
     19600   1649.7918     -279933.37      0             -258693.75     -2041.4778    
     19650   1678.3351     -280246.45      0             -258639.36     -3944.4338    
     19700   1667.5884     -279941.04      0             -258472.31     -3353.2816    
     19750   1689.8035     -279886.16      0             -258131.43     -4941.4104    
     19800   1685.4644     -279664.01      0             -257965.14     -6577.0639    
     19850   1681.8561     -279608.09      0             -257955.68     -924.16706    
     19900   1695.2807     -279902.7       0             -258077.46     -4766.4019    
     19950   1690.5702     -280054.81      0             -258290.21     -1928.9796    
     20000   1668.9854     -280079.74      0             -258593.03     -2380.0506    
     20050   1637.3351     -279856.05      0             -258776.81     -593.73431    
     20100   1660.2333     -280243.86      0             -258869.82     -3281.855     
     20150   1661.4103     -280168.54      0             -258779.34     -4071.0726    
     20200   1688.3103     -280253.71      0             -258518.2      -3882.3321    
     20250   1687.2114     -279628.88      0             -257907.53     -3389.1236    
     20300   1679.1479     -279277.18      0             -257659.63     -3116.4353    
     20350   1687.0049     -279459.93      0             -257741.23     -6490.9077    
     20400   1689.1826     -279747.6       0             -258000.86     -2941.392     
     20450   1702.6841     -280197.05      0             -258276.49     -5423.8236    
     20500   1688.7103     -280296.79      0             -258556.13     -2745.8335    
     20550   1668.5824     -280263.35      0             -258781.82     -2829.4886    
     20600   1658.6191     -280283.7       0             -258930.44     -2409.9818    
     20650   1657.0601     -280306.42      0             -258973.24     -5793.5732    
     20700   1676.0427     -280511         0             -258933.43     -2224.9436    
     20750   1683.2041     -280354.28      0             -258684.51     -3162.9337    
     20800   1697.1492     -280215.98      0             -258366.68     -3965.871     
     20850   1677.6566     -279783.63      0             -258185.28     -3054.0151    
     20900   1678.0172     -279811.9       0             -258208.91     -3678.4202    
     20950   1668.1523     -279736.98      0             -258260.99     -3312.5473    
     21000   1677.6848     -279918.82      0             -258320.1      -3616.8208    
     21050   1682.2812     -280032.94      0             -258375.06     -3514.9493    
     21100   1673.8809     -280051.06      0             -258501.31     -1520.4933    
     21150   1644.8304     -279764.24      0             -258588.5      -79.581193    
     21200   1669.4174     -280180.54      0             -258688.26     -4717.3811    
     21250   1725.1357     -280887.17      0             -258677.57     -263.43708    
     21300   1701.4561     -280645.84      0             -258741.1       572.64214    
     21350   1654.9804     -280104.83      0             -258798.41     -5363.6871    
     21400   1660.3089     -280453.27      0             -259078.26     -4658.6753    
     21450   1633.4291     -280399.59      0             -259370.63     -6172.5939    
     21500   1629.2153     -280484.13      0             -259509.41     -3543.1816    
     21550   1649.3218     -280619.43      0             -259385.86     -2087.4533    
     21600   1688.8394     -280848.87      0             -259106.55     -3699.8046    
     21650   1669.8397     -280291.99      0             -258794.27     -1022.5765    
     21700   1656.3334     -279939.17      0             -258615.34     -2590.9494    
     21750   1708.4665     -280447.01      0             -258452.01     -3784.5768    
     21800   1721.279      -280639.94      0             -258479.98     -3801.6768    
     21850   1668.013      -280048.76      0             -258574.56     -3348.6238    
     21900   1665.3604     -280231.91      0             -258791.87     -4585.3164    
     21950   1648.2545     -280283.24      0             -259063.41     -4334.0488    
     22000   1659.8824     -280706.04      0             -259336.52     -1608.284     
     22050   1637.903      -280506.96      0             -259420.4      -5954.4049    
     22100   1645.4377     -280548.13      0             -259364.57     -6002.7931    
     22150   1651.8956     -280152.7       0             -258886        -6304.99      
     22200   1664.5176     -279852.85      0             -258423.65     -1709.4068    
     22250   1651.1241     -279576.01      0             -258319.24     -1898.4863    
     22300   1696.4912     -280248.33      0             -258407.5      -4579.6982    
     22350   1700.8637     -280482.33      0             -258585.21     -3963.7975    
     22400   1673.055      -280403.81      0             -258864.7      -2926.2021    
     22450   1681.3511     -280752.25      0             -259106.34     -1946.8238    
     22500   1633.1697     -280310.57      0             -259284.95     -3131.5387    
     22550   1654.0365     -280586.9       0             -259292.63     -6590.6138    
     22600   1657.7951     -280560.03      0             -259217.37     -3209.2069    
     22650   1665.2801     -280522.34      0             -259083.32     -1768.9553    
     22700   1720.7793     -280959.45      0             -258805.93     -3838.03      
     22750   1704.6139     -280316.4       0             -258371        -4398.3553    
     22800   1702.0723     -280104.45      0             -258191.77     -3570.3376    
     22850   1683.9506     -280009.31      0             -258329.93     -2630.2804    
     22900   1704.6262     -280468.05      0             -258522.49     -6005.4019    
     22950   1716.3087     -280789.68      0             -258693.72     -3759.6503    
     23000   1657.7482     -280208.42      0             -258866.37     -5050.8815    
     23050   1662.4815     -280394.36      0             -258991.37     -2414.4171    
     23100   1643.5706     -280324.15      0             -259164.63     -6168.4384    
     23150   1675.1747     -280733.46      0             -259167.06     -4277.2306    
     23200   1663.5113     -280519.7       0             -259103.46     -1760.6367    
     23250   1677.6975     -280517.35      0             -258918.48     -4240.5604    
     23300   1716.7408     -280719.41      0             -258617.89     -1684.3881    
     23350   1717.9287     -280502.19      0             -258385.37     -1182.81      
     23400   1723.4275     -280610.27      0             -258422.66     -4969.4576    
     23450   1680.0538     -280445.36      0             -258816.15     -5362.7236    
     23500   1687.9771     -280965.84      0             -259234.62     -4653.3102    
     23550   1670.5988     -280906.34      0             -259398.85     -6582.7889    
     23600   1659.1946     -280816.17      0             -259455.5      -3427.5064    
     23650   1663.7988     -280855.8       0             -259435.85     -3048.1841    
     23700   1678.6542     -280996.63      0             -259385.44     -4614.018     
     23750   1690.3513     -280995.07      0             -259233.29     -7321.2424    
     23800   1664.7728     -280541.35      0             -259108.87     -3086.2563    
     23850   1697.3856     -280752.13      0             -258899.78     -2179.1425    
     23900   1738.0239     -281069.63      0             -258694.11     -8243.5773    
     23950   1700.6802     -280544.64      0             -258649.88     -3897.0008    
     24000   1691.8552     -280696.47      0             -258915.32     -4630.1584    
     24050   1689.8161     -281093.69      0             -259338.8      -4456.4862    
     24100   1652.6402     -280885.54      0             -259609.25     -2374.5778    
     24150   1668.9452     -281111.41      0             -259625.21     -2314.8185    
     24200   1667.6319     -281043.25      0             -259573.96     -5359.6195    
     24250   1648.8659     -280717.77      0             -259490.07     -5770.7415    
     24300   1652.0855     -280664.91      0             -259395.76     -3183.8154    
     24350   1653.5048     -280499.84      0             -259212.42     -4215.923     
     24400   1673.979      -280578.74      0             -259027.74     -2655.5678    
     24450   1693.367      -280542.31      0             -258741.7      -3300.6781    
     24500   1730.1451     -280821.54      0             -258547.45     -556.86488    
     24550   1718.8135     -280692.38      0             -258564.17     -5130.9085    
     24600   1700.4297     -280933.34      0             -259041.8      -1832.2669    
     24650   1675.0876     -280992.12      0             -259426.85     -6361.0948    
     24700   1655.2578     -280865.55      0             -259555.56     -5940.0917    
     24750   1660.5859     -280929.23      0             -259550.65     -4426.8428    
     24800   1657.2444     -280852.23      0             -259516.67     -3052.3702    
     24850   1691.2261     -281058.39      0             -259285.35     -3342.1808    
     24900   1697.4024     -280999.62      0             -259147.06     -3251.207     
     24950   1673.0162     -280545.24      0             -259006.63     -1968.4154    
     25000   1683.8436     -280717.12      0             -259039.12     -2437.0996    
     25050   1678.5175     -280782.7       0             -259173.26     -3007.1384    
     25100   1691.6962     -281303.05      0             -259523.95     -5816.9669    
     25150   1686.2471     -281553.37      0             -259844.43     -5227.5542    
     25200   1648.9735     -281230.52      0             -260001.44     -7006.9003    
     25250   1684.9943     -281657.03      0             -259964.22     -3202.4715    
     25300   1663.8307     -281335.07      0             -259914.71     -5560.1682    
     25350   1677.9893     -281384.55      0             -259781.92     -1095.4158    
     25400   1644.8716     -280759.34      0             -259583.07     -6036.0519    
     25450   1664.1374     -280757.24      0             -259332.94     -4132.6563    
     25500   1662.2125     -280730.18      0             -259330.66     -3687.5808    
     25550   1680.4849     -281047.27      0             -259412.51     -3214.2982    
     25600   1688.958      -281287.16      0             -259543.32     -727.14515    
     25650   1673.1426     -281143.76      0             -259603.53     -7288.4625    
     25700   1665.4453     -281124.32      0             -259683.18     -1323.8079    
     25750   1648.024      -280998.46      0             -259781.6      -2584.154     
     25800   1678.7529     -281611.33      0             -259998.87     -3763.0264    
     25850   1648.1929     -281376.82      0             -260157.79     -3959.779     
     25900   1654.538      -281509.02      0             -260208.3      -3482.6602    
     25950   1673.9406     -281593.99      0             -260043.48     -6058.6787    
     26000   1632.7372     -280653.87      0             -259633.82     -3183.8669    
     26050   1687.5061     -280993.8       0             -259268.64     -1723.2885    
     26100   1698.4678     -281074.92      0             -259208.64     -6413.9063    
     26150   1693.9738     -281087.3       0             -259278.88     -3975.7656    
     26200   1682.2316     -281101.8       0             -259444.55     -3308.5235    
     26250   1630.6949     -280724.36      0             -259730.6      -3081.4466    
     26300   1673.8934     -281490.69      0             -259940.78     -247.079      
     26350   1639.7313     -281156.14      0             -260046.04     -5004.267     
     26400   1668.203      -281550.03      0             -260073.38     -5339.5672    
     26450   1699.479      -281840.51      0             -259961.21     -3222.2674    
     26500   1662.3275     -281191.74      0             -259790.73     -3730.6426    
     26550   1693.0008     -281148.75      0             -259352.86     -3677.2122    
     26600   1709.1628     -281001.89      0             -258997.93     -4767.4904    
     26650   1675.0815     -280499.55      0             -258934.35     -4325.9996    
     26700   1658.7977     -280412.99      0             -259057.43     -5482.469     
     26750   1686.9771     -280909.95      0             -259191.6      -3668.0427    
     26800   1672.315      -281054.92      0             -259525.34     -4919.617     
     26850   1672.5059     -281260.99      0             -259728.95     -4001.0535    
     26900   1658.1335     -281241.29      0             -259894.28     -6431.5514    
     26950   1664.0956     -281307.21      0             -259883.45     -1816.7272    
     27000   1650.2191     -281123.08      0             -259877.96     -3042.5367    
     27050   1662.9326     -281128.52      0             -259719.73     -4215.0227    
     27100   1691.6839     -281310         0             -259531.06     -5795.0017    
     27150   1689.6003     -281010.8       0             -259258.69     -5663.5289    
     27200   1719.1182     -281114.53      0             -258982.4      -3550.9869    
     27250   1684.7147     -280550.61      0             -258861.39     -6233.4636    
     27300   1693.0041     -280884.75      0             -259088.82     -3041.2239    
     27350   1683.2103     -281225.03      0             -259555.18     -4407.0431    
     27400   1652.143      -281106.31      0             -259836.43     -4148.04      
     27450   1679.0923     -281518.21      0             -259901.38     -776.18367    
     27500   1658.2166     -281325.13      0             -259977.05     -1959.938     
     27550   1655.8337     -281256.74      0             -259939.34     -3752.044     
     27600   1664.6399     -281304.49      0             -259873.72     -2731.93      
     27650   1667.0476     -281155.03      0             -259693.26      1424.3249    
     27700   1700.3298     -281382.6       0             -259492.35     -851.80363    
     27750   1715.0303     -281400.25      0             -259320.75     -7043.2674    
     27800   1670.6405     -280846.13      0             -259338.11     -6228.7258    
     27850   1668.9164     -281035.93      0             -259550.1      -3385.4339    
     27900   1673.1784     -281461.33      0             -259920.64     -10137.423    
     27950   1650.6705     -281459.28      0             -260208.35     -2348.9027    
     28000   1671.4005     -281840.58      0             -260322.77     -4884.57      
     28050   1643.104      -281452.16      0             -260298.65     -3848.3473    
     28100   1659.534      -281512.66      0             -260147.62     -3376.0258    
     28150   1694.3698     -281701.39      0             -259887.87     -3187.7101    
     28200   1684.1605     -281414.25      0             -259732.17     -5772.1443    
     28250   1676.0495     -281283.1       0             -259705.44     -3917.4998    
     28300   1686.6837     -281471.53      0             -259756.96     -2299.8797    
     28350   1655.343      -281052.71      0             -259741.63     -3856.8308    
     28400   1698.5953     -281659.36      0             -259791.45     -6210.878     
     28450   1675.7404     -281424.21      0             -259850.53     -4657.6333    
     28500   1677.8791     -281566.57      0             -259965.36     -5289.9584    
     28550   1660.1427     -281418.54      0             -260045.67     -2100.9913    
     28600   1665.0202     -281643.33      0             -260207.67     -6079.5508    
     28650   1649.8673     -281596.42      0             -260355.84     -4089.1681    
     28700   1631.2703     -281415.12      0             -260413.95     -3339.427     
     28750   1649.9722     -281482.04      0             -260240.11     -5291.7936    
     28800   1693.241      -281547.74      0             -259748.76     -6346.4871    
     28850   1681.3514     -281073.9       0             -259427.98     -1777.3023    
     28900   1685.1392     -281084.07      0             -259389.39     -4278.3672    
     28950   1692.2484     -281280.01      0             -259493.8      -4577.7837    
     29000   1714.4524     -281834.08      0             -259762.02     -7880.2105    
     29050   1673.3952     -281598.53      0             -260055.04     -5166.7462    
     29100   1635.8612     -281348.75      0             -260288.48     -10435.742    
     29150   1679.7874     -282033.01      0             -260407.23     -4193.5528    
     29200   1683.8781     -282108.47      0             -260430.03     -7419.4484    
     29250   1660.6344     -281764.1       0             -260384.9      -5842.5633    
     29300   1690.3447     -282067         0             -260305.3      -4294.9381    
     29350   1644.8393     -281252.05      0             -260076.19     -7532.1455    
     29400   1670.5222     -281205.31      0             -259698.81     -3549.9851    
     29450   1715.2633     -281464.61      0             -259382.1      -4318.6767    
     29500   1746.2301     -281920.74      0             -259439.56     -3768.1542    
     29550   1675.1546     -281225.02      0             -259658.88     -5844.3122    
     29600   1662.5771     -281284.38      0             -259880.16     -4679.8452    
     29650   1712.6776     -282091.92      0             -260042.7      -5273.0098    
     29700   1706.2622     -282199.56      0             -260232.94     -3833.219     
     29750   1668.6826     -281847.97      0             -260365.15     -3600.8539    
     29800   1648.7696     -281691.8       0             -260465.34     -6182.5493    
     29850   1683.4024     -282098.7       0             -260426.38     -4515.8793    
     29900   1665.1071     -281836.96      0             -260400.17     -4408.0228    
     29950   1684.2669     -281928.94      0             -260245.49     -3341.8435    
     30000   1702.8168     -281848.52      0             -259926.25     -4193.8785    
     30050   1673.919      -281183.35      0             -259633.12     -3965.9669    
     30100   1688.0919     -281305.25      0             -259572.55     -4411.649     
     30150   1685.9425     -281404.52      0             -259699.5      -1670.7009    
     30200   1681.8182     -281634.95      0             -259983.02     -3636.1705    
     30250   1668.3549     -281745.54      0             -260266.94     -4938.4247    
     30300   1665.9248     -281829.55      0             -260382.24     -4247.7556    
     30350   1680.695      -282028.13      0             -260390.66     -2851.0688    
     30400   1653.5155     -281686.75      0             -260399.19     -1660.7513    
     30450   1675.6882     -281954.86      0             -260381.85     -7692.4718    
     30500   1678.7652     -282014.59      0             -260401.97     -4553.0361    
     30550   1667.8442     -281909.53      0             -260437.5      -4402.2201    
     30600   1623.962      -281342.3       0             -260435.22     -6156.7096    
     30650   1656.8862     -281655.76      0             -260324.81     -5412.3444    
     30700   1706.0995     -282162.07      0             -260197.54     -3039.7907    
     30750   1650.5464     -281292.73      0             -260043.39     -6419.7053    
     30800   1684.4312     -281507.1       0             -259821.53     -3375.9153    
     30850   1702.2479     -281564.87      0             -259649.93     -2747.0799    
     30900   1689.9103     -281412.85      0             -259656.74     -6069.2167    
     30950   1670.0867     -281356.95      0             -259856.06     -3557.9397    
     31000   1669.0037     -281750.45      0             -260263.5      -3502.8979    
     31050   1649.8041     -281746.12      0             -260506.35     -3668.4198    
     31100   1656.3257     -281951.98      0             -260628.25     -5780.9415    
     31150   1629.4913     -281626.21      0             -260647.95     -5211.1749    
     31200   1657.2439     -281916.36      0             -260580.81     -3990.8781    
     31250   1670.5362     -281939.6       0             -260432.92     -3035.6599    
     31300   1691.4916     -282041.88      0             -260265.42     -1042.1411    
     31350   1682.2118     -281707.29      0             -260050.3      -2412.4199    
     31400   1702.4202     -281713.47      0             -259796.31     -3732.5067    
     31450   1716.2492     -281613.38      0             -259518.18     -7979.3083    
     31500   1724.5803     -281603.76      0             -259401.31     -6371.0806    
     31550   1720.3885     -281813.55      0             -259665.07     -3792.8275    
     31600   1668.623      -281737.27      0             -260255.22     -4900.7004    
     31650   1642.1847     -281637.94      0             -260496.26     -3326.3357    
     31700   1675.3697     -282201.8       0             -260632.89     -5728.218     
     31750   1711.7659     -282783.95      0             -260746.47     -2748.4529    
     31800   1656.4714     -282248.08      0             -260922.47     -7900.1266    
     31850   1659.2112     -282356.35      0             -260995.47     -4630.5735    
     31900   1653.5582     -282240.59      0             -260952.48     -5178.3481    
     31950   1670.9322     -282268.21      0             -260756.43     -3901.3601    
     32000   1693.9167     -282337.31      0             -260529.62     -6613.9649    
     32050   1679.0296     -281891.27      0             -260275.25     -2710.0335    
     32100   1690.7561     -281924.2       0             -260157.2      -6427.7514    
     32150   1690.262      -281881.45      0             -260120.82     -5468.9101    
     32200   1711.369      -282270.95      0             -260238.58     -3531.3139    
     32250   1641.5796     -281723.07      0             -260589.18     -2452.9286    
     32300   1652.3475     -282328.24      0             -261055.72      1204.9065    
     32350   1650.3537     -282437.8       0             -261190.95     -4593.1746    
     32400   1617.81       -282021.86      0             -261193.99     -4908.9622    
     32450   1669.5649     -282416.46      0             -260922.28     -3738.6987    
     32500   1699.9172     -282561.61      0             -260676.68     -5785.2893    
     32550   1654.152      -281803.96      0             -260508.21     -6001.5156    
     32600   1662.9196     -281830.65      0             -260422.03     -4951.8579    
     32650   1708.0102     -282416.36      0             -260427.23     -4173.9764    
     32700   1656.081      -281866.21      0             -260545.63     -3733.4193    
     32750   1679.3557     -282218.23      0             -260598        -4436.4767    
     32800   1659.9854     -282052.75      0             -260681.9      -4789.7862    
     32850   1670.3328     -282205.36      0             -260701.29     -3147.5372    
     32900   1651.5099     -282027.16      0             -260765.43     -3008.2714    
     32950   1666.501      -282280.1       0             -260825.37     -2815.3201    
     33000   1689.3743     -282650.31      0             -260901.11     -6535.5828    
     33050   1657.8476     -282295.91      0             -260952.59     -6269.8038    
     33100   1635.4032     -282085.03      0             -261030.65     -3892.3768    
     33150   1644.3958     -282110.7       0             -260940.55     -4302.6588    
     33200   1681.5927     -282398.09      0             -260749.06     -5225.2549    
     33250   1688.0034     -282207.63      0             -260476.07     -5433.114     
     33300   1710.8227     -282306.47      0             -260281.14     -5330.6314    
     33350   1686.3839     -281896.72      0             -260186.02     -1190.9306    
     33400   1700.9291     -282111.19      0             -260213.23     -1515.5425    
     33450   1688.6197     -282196.74      0             -260457.25     -5779.1794    
     33500   1675.2373     -282507.49      0             -260940.28     -6004.9479    
     33550   1638.8363     -282195.05      0             -261096.48     -3454.8959    
     33600   1630.6468     -282086.71      0             -261093.57     -6874.8985    
     33650   1665.3833     -282364.92      0             -260924.58     -4850.7669    
     33700   1650.1133     -282108.32      0             -260864.56     -5296.0004    
     33750   1675.0584     -282207.41      0             -260642.51     -5487.197     
     33800   1713.4241     -282574.73      0             -260515.9      -1392.3651    
     33850   1701.4136     -282296.9       0             -260392.7      -3926.1323    
     33900   1711.9522     -282405.94      0             -260366.07     -5313.1667    
     33950   1685.1263     -282045.62      0             -260351.11     -3474.7004    
     34000   1689.4944     -282161.45      0             -260410.7      -3023.0388    
     34050   1676.7897     -282174.76      0             -260587.57     -3114.7306    
     34100   1664.4813     -282267.6       0             -260838.87     -4221.5998    
     34150   1621.603      -281933.76      0             -261057.05     -4762.6032    
     34200   1650.9981     -282352.05      0             -261096.91     -4749.5744    
     34250   1689.0582     -282761.29      0             -261016.16     -4666.3162    
     34300   1678.4196     -282475.92      0             -260867.75     -4917.8584    
     34350   1660.5161     -281938.49      0             -260560.81     -3816.2693    
     34400   1703.1282     -282268.74      0             -260342.46     -4192.8881    
     34450   1709.6097     -282229.81      0             -260220.09     -4816.3755    
     34500   1674.5519     -281944.88      0             -260386.5      -3011.1347    
     34550   1644.955      -281912.04      0             -260734.7      -5022.2872    
     34600   1641.3534     -282339.39      0             -261208.41     -1336.871     
     34650   1637.8833     -282359.78      0             -261273.47     -3866.9035    
     34700   1646.552      -282361.61      0             -261163.7      -2879.2684    
     34750   1642.6416     -282098.72      0             -260951.16     -4967.6963    
     34800   1686.4699     -282472.97      0             -260761.15     -5285.5464    
     34850   1677.6248     -282181.11      0             -260583.16     -2727.9624    
     34900   1658.1303     -281843.64      0             -260496.68     -5553.3628    
     34950   1699.8029     -282253.35      0             -260369.89     -4216.525     
     35000   1696.721      -282117.12      0             -260273.33     -4053.7075    
     35050   1713.8112     -282491.39      0             -260427.59     -5294.1131    
     35100   1657.3822     -282187.6       0             -260850.27     -2614.3599    
     35150   1631.661      -282213.91      0             -261207.72     -4794.2199    
     35200   1665.8827     -282711.65      0             -261264.88     -3445.0953    
     35250   1680.8299     -282807.87      0             -261168.67     -7464.4857    
     35300   1683.8378     -282709.76      0             -261031.83     -3566.3409    
     35350   1678.1585     -282436.17      0             -260831.36     -6118.6472    
     35400   1676.2831     -282209.71      0             -260629.04     -2971.2826    
     35450   1693.6381     -282253.3       0             -260449.2      -6908.3216    
     35500   1696.6185     -282229.46      0             -260387        -1331.5125    
     35550   1646.3869     -281649.4       0             -260453.62     -5150.3593    
     35600   1688.6324     -282495.54      0             -260755.88     -7910.2608    
     35650   1640.5715     -282262.72      0             -261141.81     -5786.1699    
     35700   1631.2265     -282338.02      0             -261337.41     -4978.2526    
     35750   1653.2897     -282617.84      0             -261333.19     -6291.3303    
     35800   1663.2632     -282648.05      0             -261235.01     -1591.0205    
     35850   1650.2932     -282283.11      0             -261037.04     -7953.7458    
     35900   1679.5981     -282516.17      0             -260892.83     -2081.9147    
     35950   1677.842      -282399.88      0             -260799.15     -5387.6501    
     36000   1667.7805     -282245.26      0             -260774.06     -5508.9312    
     36050   1661.1732     -282247.35      0             -260861.21     -7063.8645    
     36100   1667.346      -282573.41      0             -261107.8      -2730.9169    
     36150   1636.295      -282499.47      0             -261433.62     -3943.9426    
     36200   1655.4055     -283046.55      0             -261734.67     -5729.754     
     36250   1671.9876     -283355.72      0             -261830.35     -6522.2165    
     36300   1672.7491     -283171.32      0             -261636.15     -7498.1273    
     36350   1670.5626     -282577.19      0             -261070.17     -7493.6674    
     36400   1667.2025     -282277.52      0             -260813.76     -6702.8368    
     36450   1702.4431     -282618.94      0             -260701.49     -3534.584     
     36500   1665.1091     -282185.54      0             -260748.72     -3493.0748    
     36550   1692.0285     -282592.86      0             -260809.49     -5075.6015    
     36600   1662.9725     -282377.32      0             -260968.01     -3035.405     
     36650   1666.1925     -282583.41      0             -261132.65     -4577.2148    
     36700   1636.3528     -282427.71      0             -261361.11     -7630.1542    
     36750   1659.7302     -282832.61      0             -261465.05     -4473.3517    
     36800   1643.9651     -282593.01      0             -261428.4      -3910.8628    
     36850   1648.4981     -282397.4       0             -261174.44     -5925.7966    
     36900   1671.3991     -282271.46      0             -260753.67     -4250.3272    
     36950   1679.1634     -282150.92      0             -260533.17     -4039.5088    
     37000   1717.8661     -282663.45      0             -260547.43     -5073.3051    
     37050   1681.3884     -282318.34      0             -260671.95     -5236.5077    
     37100   1662.8818     -282275.67      0             -260867.53      716.72643    
     37150   1645.99       -282243.42      0             -261052.75     -4339.9633    
     37200   1660.1204     -282543.8       0             -261171.21     -5991.2343    
     37250   1682.5829     -282827.47      0             -261165.7      -724.19717    
     37300   1677.9296     -282781.91      0             -261180.04     -3877.9503    
     37350   1667.1056     -282513.9       0             -261051.39     -2057.6716    
     37400   1705.8194     -282938.28      0             -260977.36     -1425.3975    
     37450   1688.9406     -282682.85      0             -260939.22     -2820.3646    
     37500   1637.5176     -282044.03      0             -260962.43     -5770.64      
     37550   1666.7336     -282399.47      0             -260941.74     -4939.493     
     37600   1686.4078     -282680.6       0             -260969.59     -3851.4257    
     37650   1670.9105     -282561.73      0             -261050.23     -7294.5666    
     37700   1663.814      -282454.89      0             -261034.76     -4970.8757    
     37750   1682.3532     -282694.76      0             -261035.95     -4388.5186    
     37800   1667.3916     -282533.56      0             -261067.36     -2601.4996    
     37850   1686.6547     -282738.9       0             -261024.71     -4838.142     
     37900   1661.0705     -282409.62      0             -261024.8      -7455.4929    
     37950   1666.8245     -282435.85      0             -260976.95     -6823.5749    
     38000   1681.6044     -282609.37      0             -260960.19     -3536.3198    
     38050   1675.5437     -282509.95      0             -260938.8      -5575.8992    
     38100   1688.3318     -282694.88      0             -260959.09     -6135.358     
     38150   1681.9525     -282665.36      0             -261011.71     -4659.7608    
     38200   1695.1956     -283030.46      0             -261206.32     -6877.8439    
     38250   1661.0359     -282875.32      0             -261490.95     -4596.2841    
     38300   1672.2942     -283256.51      0             -261727.19     -3033.5351    
     38350   1627.8388     -282741.37      0             -261784.38     -4342.673     
     38400   1628.3756     -282688.44      0             -261724.54     -5835.7142    
     38450   1642.288      -282462.91      0             -261319.9      -6556.743     
     38500   1699.8152     -282867.49      0             -260983.87     -4478.789     
     38550   1664.7044     -282326.46      0             -260894.85     -3143.5466    
     38600   1686.3701     -282703.12      0             -260992.6      -5706.2401    
     38650   1683.7294     -282798.67      0             -261122.13     -1958.0208    
     38700   1672.0588     -282865.97      0             -261339.69     -5789.9017    
     38750   1665.9718     -282914         0             -261466.08     -5644.8188    
     38800   1652.1429     -282884.37      0             -261614.49     -5868.8861    
     38850   1657.1581     -283026.74      0             -261692.29     -4820.364     
     38900   1678.6386     -283367.21      0             -261756.22     -2983.9798    
     38950   1691.6396     -283396.94      0             -261618.57     -5884.0207    
     39000   1679.6403     -282959.56      0             -261335.67     -2543.3283    
     39050   1687.1963     -282732.42      0             -261011.26     -6184.3333    
     39100   1671.7907     -282423.15      0             -260900.31     -6079.2684    
     39150   1681.9011     -282564.33      0             -260911.34     -5270.7144    
     39200   1699.4377     -282994.27      0             -261115.51     -7750.5848    
     39250   1648.3885     -282595.07      0             -261373.52     -5712.3462    
     39300   1660.4526     -282943.21      0             -261566.35     -7286.7984    
     39350   1661.5705     -283049.3       0             -261658.04     -4329.0005    
     39400   1661.7884     -283089.13      0             -261695.07     -7580.8978    
     39450   1666.9954     -283086.38      0             -261625.29     -4696.6917    
     39500   1644.4905     -282752.53      0             -261581.16     -2077.9211    
     39550   1674.0756     -282999.2       0             -261446.95     -4879.6681    
     39600   1670.1747     -282855.01      0             -261352.98     -6683.8544    
     39650   1682.0812     -282890.87      0             -261235.55     -7571.2841    
     39700   1669.6468     -282676.64      0             -261181.41     -3555.3958    
     39750   1694.0616     -282960.38      0             -261150.83     -7053.5902    
     39800   1669.4371     -282681.84      0             -261189.31     -1812.4273    
     39850   1670.2555     -282734.33      0             -261231.26     -7484.4372    
     39900   1650.6231     -282693.64      0             -261443.33     -4068.7281    
     39950   1652.5005     -282984.08      0             -261709.59     -6103.6497    
     40000   1653.167      -283274.17      0             -261991.11     -7496.8646    
     40050   1652.7485     -283292.26      0             -262014.59     -5397.1575    
     40100   1634.6064     -282936.87      0             -261892.75     -6779.7646    
     40150   1661.8388     -282890.48      0             -261495.77     -6154.1954    
     40200   1677.6446     -282849.83      0             -261251.63     -6475.8484    
     40250   1665.7499     -282601.37      0             -261156.31     -6056.4534    
     40300   1704.4922     -283099.14      0             -261155.31     -5391.2911    
     40350   1698.1862     -283079.56      0             -261216.91     -3836.6911    
     40400   1659.0253     -282757.1       0             -261398.61     -8161.0649    
     40450   1660.4374     -282918.94      0             -261542.27     -3126.7308    
     40500   1664.7225     -283109.65      0             -261677.82     -4393.2513    
     40550   1648.0482     -282975.87      0             -261758.7      -3516.6516    
     40600   1671.7468     -283273.94      0             -261751.67     -4725.8613    
     40650   1674.5177     -283164.8       0             -261606.86     -5128.373     
     40700   1694.5965     -283191.18      0             -261374.75     -7292.2256    
     40750   1680.4421     -282788.65      0             -261154.44     -2985.8763    
     40800   1681.9551     -282706.91      0             -261053.22     -4068.7823    
     40850   1704.1787     -282979.08      0             -261039.28     -4872.9097    
     40900   1646.6163     -282406.92      0             -261208.18     -3261.749     
     40950   1647.2946     -282683.42      0             -261475.96     -5934.428     
     41000   1668.7799     -283279.08      0             -261795.01     -6272.8382    
     41050   1655.7043     -283270.67      0             -261954.93     -8242.3692    
     41100   1666.3004     -283457.88      0             -262005.73     -5205.9609    
[...]
     42300   1696.6785     -283137.91      0             -261294.67     -4365.1154    
     42350   1661.2233     -282722.98      0             -261336.2      -4958.4368    
     42400   1688.2349     -283125.35      0             -261390.81     -3317.321     
     42450   1639.8571     -282560.16      0             -261448.45     -5269.2618    
     42500   1648.3719     -282759.52      0             -261538.19     -4078.6182    
     42550   1665.43       -282990.15      0             -261549.21     -1864.136     
     42600   1674.423      -283100.86      0             -261544.14     -6395.6582    
     42650   1655.3656     -282750.37      0             -261439        -2573.2504    
     42700   1673.5417     -282847.24      0             -261301.87     -5530.5353    
     42750   1675.1849     -282681.34      0             -261114.81     -3898.7462    
     42800   1680.8068     -282687.96      0             -261049.05     -3482.1804    
     42850   1723.2        -283250.65      0             -261065.97     -2961.5327    
     42900   1695.3262     -283176.31      0             -261350.48     -2320.8437    
     42950   1659.2122     -282998.66      0             -261637.76     -5571.3428    
     43000   1670.8248     -283346.9       0             -261836.5      -4394.8265    
     43050   1641.6146     -282982.62      0             -261848.28     -3076.5164    
     43100   1663.7407     -283212.31      0             -261793.11     -3586.4292    
     43150   1661.1947     -282978.13      0             -261591.71     -5564.797     
     43200   1659.2072     -282682.43      0             -261321.6      -9133.5123    
     43250   1708.8935     -282865.03      0             -260864.54     -6133.6009    
     43300   1730.6762     -282958.65      0             -260677.72     -7148.1169    
     43350   1719.517      -282866.64      0             -260729.38     -5018.3005    
     43400   1711.079      -282958.69      0             -260930.05     -3913.3596    
     43450   1663.1568     -282492.73      0             -261081.05     -2158.4301    
     43500   1712.9111     -283315.4       0             -261263.18     -3728.8065    
     43550   1695.3651     -283282.52      0             -261456.19     -5347.2146    
     43600   1636.7263     -282766.53      0             -261695.13     -6905.4467    
     43650   1649.6747     -282992.32      0             -261754.21     -5685.6427    
     43700   1657.4261     -283119.47      0             -261781.57     -4314.3992    
     43750   1682.9696     -283412.95      0             -261746.2      -2570.6566    
     43800   1691.9977     -283440.45      0             -261657.47     -4472.291     
     43850   1665.2316     -282902.51      0             -261464.13     -3930.7685    
     43900   1688.743      -282925.81      0             -261184.73     -3383.9445    
     43950   1713.531      -283000.38      0             -260940.18     -9144.661     
     44000   1693.4689     -282736.11      0             -260934.19     -5662.7086    
     44050   1726.4874     -283347.52      0             -261120.51     -3359.3669    
     44100   1647.3777     -282715.32      0             -261506.78     -7237.6639    
     44150   1670.2314     -283226.82      0             -261724.06     -5314.4898    
     44200   1654.7173     -283136.29      0             -261833.27     -8436.3778    
     44250   1672.7459     -283343.28      0             -261808.15     -8516.3868    
     44300   1680.3694     -283439.33      0             -261806.06     -5034.2663    
     44350   1655.8942     -283077.01      0             -261758.83     -2836.4042    
     44400   1675.6258     -283187.03      0             -261614.82     -4961.8304    
     44450   1670.5615     -282904.69      0             -261397.68     -3827.3885    
     44500   1679.8123     -282807.2       0             -261181.1      -3046.0122    
     44550   1681.9378     -282579.28      0             -260925.82     -6523.9485    
     44600   1719.4477     -282997.84      0             -260861.46     -4547.0596    
     44650   1717.7223     -283105.19      0             -260991.03     -1544.3105    
     44700   1670.9712     -282969.34      0             -261457.06     -2636.0788    
     44750   1652.8783     -282985.85      0             -261706.5      -4379.5061    
     44800   1645.1803     -282999.09      0             -261818.84     -4112.5718    
     44850   1694.857      -283629.29      0             -261809.5      -7251.1616    
     44900   1654.1626     -283054.35      0             -261758.46     -4842.2739    
     44950   1671.2684     -283111.29      0             -261595.18     -2755.4514    
     45000   1709.8492     -283473.24      0             -261460.44     -4563.2087    
     45050   1741.7904     -283756.48      0             -261332.46     -2636.1875    
     45100   1692.5918     -283215.31      0             -261424.69     -5911.19      
     45150   1655.5625     -283025.65      0             -261711.74     -6302.4013    
     45200   1659.6002     -283444.09      0             -262078.2      -6071.5368    
     45250   1654.2054     -283546.59      0             -262250.15     -4066.8401    
     45300   1657.0792     -283556.34      0             -262222.9      -4782.2547    
     45350   1663.5102     -283447.59      0             -262031.36     -470.27124    
     45400   1675.2066     -283419.81      0             -261853        -7461.8637    
     45450   1661.4349     -283068.7       0             -261679.19     -2399.5183    
     45500   1671.0915     -283094.52      0             -261580.69     -2917.5301    
     45550   1658.8848     -282850.13      0             -261493.45     -5114.4872    
     45600   1639.5798     -282658.43      0             -261550.29     -6124.8326    
     45650   1689.764      -283315.78      0             -261561.56     -4902.0534    
     45700   1667.3076     -283073.8       0             -261608.68     -2144.4355    
     45750   1677.9108     -283265.55      0             -261663.93     -5408.5598    
     45800   1655.5489     -283071.12      0             -261757.39     -6053.8775    
     45850   1665.2029     -283250.24      0             -261812.22     -4560.2573    
     45900   1681.077      -283553.6       0             -261911.21     -8374.2749    
     45950   1660.7138     -283511.8       0             -262131.57     -5748.3475    
     46000   1625.2639     -283415.81      0             -262491.97     -4911.519     
     46050   1624.6922     -283514.07      0             -262597.59     -4127.8551    
     46100   1626.9049     -283491.56      0             -262546.59     -3966.861     
     46150   1662.2577     -283559.23      0             -262159.13     -7179.8511    
     46200   1664.2758     -283313.59      0             -261887.5      -3186.0931    
     46250   1692.5038     -283535.76      0             -261746.27     -6489.4363    
     46300   1661.311      -283148.29      0             -261760.37     -2565.3441    
     46350   1683.2358     -283425.18      0             -261755        -184.1197     
     46400   1678.9268     -283497.8       0             -261883.09     -5664.934     
     46450   1670.1578     -283501.13      0             -261999.32     -4733.5371    
     46500   1652.7661     -283570.4       0             -262292.49     -3314.4878    
     46550   1636.4684     -283523.71      0             -262455.62     -4428.0923    
     46600   1683.4252     -284166.69      0             -262494.08     -5021.9056    
     46650   1629.8987     -283325.56      0             -262342.05     -4495.2952    
     46700   1672.4207     -283434.48      0             -261903.53     -7598.6848    
     46750   1674.5694     -283155.8       0             -261597.19     -5995.9914    
     46800   1682.8759     -283220.99      0             -261555.45     -5089.6044    
     46850   1720.6868     -283748.6       0             -261596.27     -6221.1472    
     46900   1703.2099     -283751.46      0             -261824.14     -8067.1457    
     46950   1675.6263     -283617.51      0             -262045.3      -2921.5081    
     47000   1656.2381     -283594.87      0             -262272.26     -3469.4893    
     47050   1631.9053     -283353.81      0             -262344.47     -7021.8421    
     47100   1660.5596     -283723.81      0             -262345.57     -7340.0278    
     47150   1643.8208     -283386.66      0             -262223.91     -4728.1118    
     47200   1676.1766     -283685.52      0             -262106.22     -5059.6284    
     47250   1668.2652     -283462.29      0             -261984.84     -6344.7719    
     47300   1667.5501     -283405.36      0             -261937.12     -1914.6898    
     47350   1688.1153     -283597.06      0             -261864.06     -4142.7636    
     47400   1681.3026     -283544.08      0             -261898.79     -5539.9892    
     47450   1685.0065     -283670.57      0             -261977.6      -5117.2133    
     47500   1664.1313     -283538.28      0             -262114.06     -5109.0319    
     47550   1666.243      -283687.12      0             -262235.71     -6880.7036    
     47600   1661.7633     -283775.51      0             -262381.77     -5136.3781    
     47650   1649.5835     -283669.2       0             -262432.27     -7601.2789    
     47700   1665.5185     -283807.37      0             -262365.29     -4868.1323    
     47750   1668.7648     -283584.99      0             -262101.11     -1816.5748    
     47800   1727.7529     -284009.92      0             -261766.63     -4196.6384    
     47850   1694.5083     -283426.7       0             -261611.4      -8566.5272    
     47900   1688.3234     -283361.22      0             -261625.55     -2656.846     
     47950   1677.1956     -283353.31      0             -261760.9      -4783.2305    
     48000   1689.6497     -283756.13      0             -262003.38     -5256.6479    
     48050   1654.8994     -283498.2       0             -262192.83     -2592.7682    
     48100   1662.7516     -283744.74      0             -262338.28     -3577.997     
     48150   1663.7802     -283762.43      0             -262342.73     -4661.4455    
     48200   1678.5794     -283943.07      0             -262332.84     -4035.0303    
     48250   1651.9029     -283551.18      0             -262284.39     -5888.8373    
     48300   1695.8304     -283990.69      0             -262158.37     -3684.9894    
     48350   1666.0846     -283443.17      0             -261993.8      -4173.846     
     48400   1686.743      -283601.3       0             -261885.98     -6120.7461    
     48450   1687.5595     -283464.74      0             -261738.9      -8239.2776    
     48500   1686.3542     -283420.86      0             -261710.54     -6249.7934    
     48550   1695.92       -283561.2       0             -261727.72     -2147.389     
     48600   1684.1513     -283617.57      0             -261935.61     -8858.4466    
     48650   1650.495      -283524.35      0             -262275.68     -5419.3955    
     48700   1667.132      -284001.48      0             -262538.63     -6222.7558    
     48750   1681.6258     -284252.32      0             -262602.87     -4622.5661    
     48800   1665.7244     -283974.43      0             -262529.69     -5989.4544    
     48850   1683.769      -283980.55      0             -262303.51     -3886.7888    
     48900   1706.6087     -284019.75      0             -262048.67     -6490.3628    
     48950   1717.8964     -283963.23      0             -261846.83     -2288.8063    
     49000   1689.2156     -283603.87      0             -261856.7      -4156.4587    
     49050   1664.6584     -283352.72      0             -261921.71     -2109.1047    
     49100   1685.9442     -283717.69      0             -262012.64     -4595.6526    
     49150   1657.1678     -283537.37      0             -262202.8      -4769.8706    
     49200   1640.3215     -283888.58      0             -262770.89     -561.56802    
     49250   1646.6899     -284240.63      0             -263040.95     -628.46692    
     49300   1627.5411     -283920.66      0             -262967.5      -6225.5238    
     49350   1654.8974     -283905.41      0             -262600.06     -2879.044     
     49400   1671.3832     -283819.71      0             -262302.12     -2422.1783    
     49450   1662.7843     -283499.77      0             -262092.89     -6985.0491    
     49500   1670.7648     -283476.81      0             -261967.19     -5033.1919    
     49550   1694.0575     -283629.09      0             -261819.59     -4923.5047    
     49600   1680.0169     -283407.55      0             -261778.81     -7155.1066    
     49650   1682.4007     -283413.66      0             -261754.24     -2861.3254    
     49700   1692.1524     -283673.49      0             -261888.52     -9557.9669    
     49750   1681.1418     -283852.07      0             -262208.85     -3863.4499    
     49800   1634.2404     -283648.7       0             -262609.3      -7427.5981    
     49850   1660.2769     -284102.91      0             -262728.3      -5322.1316    
     49900   1644.9879     -283911.13      0             -262733.36     -6767.3963    
     49950   1632.2972     -283535.18      0             -262520.8      -5118.3037    
     50000   1653.4101     -283578.73      0             -262292.53     -2029.6117    
     50050   1672.8318     -283659.65      0             -262123.41     -4036.2092    
     50100   1672.2425     -283632.03      0             -262103.38     -3572.883     
     50150   1660.4603     -283481.61      0             -262104.65     -7887.6043    
     50200   1696.7144     -283991.96      0             -262148.25     -3946.9246    
     50250   1651.6351     -283484.67      0             -262221.32     -7710.3065    
     50300   1678.6508     -283936.18      0             -262325.03     -4193.8646    
     50350   1678.4908     -284043         0             -262433.91     -6752.6244    
     50400   1675.008      -284196.04      0             -262631.79     -7951.8246    
     50450   1643.0775     -283944         0             -262790.82     -6464.6095    
     50500   1644.2562     -284008.12      0             -262839.77     -4084.3408    
     50550   1648.3119     -283849.22      0             -262628.66     -2790.6       
     50600   1617.0943     -283111.43      0             -262292.76     -7027.544     
     50650   1695.0715     -283750.14      0             -261927.59     -5805.6269    
     50700   1695.8977     -283723.62      0             -261890.43     -7932.3923    
     50750   1695.153      -283713.31      0             -261889.71     -5614.7406    
     50800   1664.0735     -283445.4       0             -262021.92     -4739.7824    
     50850   1668.8151     -283649.11      0             -262164.58     -9809.7302    
     50900   1672.3155     -283906.27      0             -262376.68     -5213.7076    
     50950   1666.6004     -284004.92      0             -262548.91     -6350.3269    
     51000   1632.0976     -283759.21      0             -262747.39     -4875.4863    
     51050   1652.6935     -284112.11      0             -262835.14     -5263.9822    
     51100   1657.8396     -284157.02      0             -262813.79     -2412.4812    
     51150   1663.6166     -283873.66      0             -262456.06     -2921.6255    
     51200   1703.5517     -284053.79      0             -262122.06     -4273.805     
     51250   1683.9569     -283597.46      0             -261918        -2981.5144    
     51300   1704.3414     -283782.73      0             -261840.84     -4778.4857    
     51350   1670.4208     -283390.04      0             -261884.85     -8144.6948    
     51400   1681.7019     -283729.98      0             -262079.55     -4481.8437    
     51450   1681.1232     -283981.73      0             -262338.75     -4264.9067    
     51500   1647.2394     -283830.7       0             -262623.94     -6925.8324    
     51550   1650.0542     -283906.93      0             -262663.94     -7184.1989    
     51600   1690.936      -284393.05      0             -262623.74     -4761.1343    
     51650   1675.0747     -284045.76      0             -262480.65     -9383.9146    
     51700   1645.7478     -283562.34      0             -262374.79     -5956.6728    
     51750   1659.7808     -283653.68      0             -262285.47     -4164.4249    
     51800   1663.1903     -283679.03      0             -262266.92     -7268.7583    
     51850   1698.6376     -284064.45      0             -262195.99     -7342.7336    
     51900   1687.2915     -283894.54      0             -262172.15     -3784.1945    
     51950   1671.305      -283686.97      0             -262170.39     -6334.4214    
     52000   1674.7199     -283775.55      0             -262215.01     -1280.8605    
     52050   1686.009      -284000.2       0             -262294.32     -3979.2844    
     52100   1682.6557     -284211.29      0             -262548.58     -2967.7349    
     52150   1665.9204     -284210.88      0             -262763.63     -8305.435     
     52200   1642.8135     -284041.58      0             -262891.81     -3448.8       
     52250   1667.3834     -284296.49      0             -262830.4      -8166.8873    
     52300   1633.2167     -283637.66      0             -262611.44     -6868.7572    
     52350   1696.08       -284123.2       0             -262287.67     -2507.0636    
     52400   1696.0342     -283955.89      0             -262120.95     -6221.6911    
     52450   1710.4991     -284080.6       0             -262059.43     -8370.2001    
     52500   1697.031      -283977.28      0             -262129.5      -4215.1437    
     52550   1683.8037     -283909.8       0             -262232.31     -4418.9709    
     52600   1673.1674     -283929.86      0             -262389.31     -6550.3055    
     52650   1687.0311     -284273.8       0             -262554.76     -7348.2072    
     52700   1680.0686     -284311.82      0             -262682.41     -5107.1468    
     52750   1675.1484     -284290.24      0             -262724.19     -2914.4079    
     52800   1652.1994     -283985.53      0             -262714.92     -5340.9385    
     52850   1657.7704     -284010.3       0             -262667.96     -3192.8373    
     52900   1666.066      -284081.03      0             -262631.9      -1928.2061    
     52950   1645.4203     -283764.31      0             -262580.97     -8469.4555    
     53000   1663.4343     -283873.08      0             -262457.83     -3106.1531    
     53013   1702.767      -284340.26      0             -262418.63     -6703.5094    
Loop time of 34280.4 on 1 procs for 50000 steps with 4320 atoms

Performance: 0.063 ns/day, 380.893 hours/ns, 1.459 timesteps/s, 6.301 katom-step/s
43.3% CPU use with 1 MPI tasks x 1 OpenMP threads

MPI task timing breakdown:
Section |  min time  |  avg time  |  max time  |%varavg| %total
---------------------------------------------------------------
Pair    | 23872      | 23872      | 23872      |   0.0 | 69.64
Neigh   | 23.838     | 23.838     | 23.838     |   0.0 |  0.07
Comm    | 2.0048     | 2.0048     | 2.0048     |   0.0 |  0.01
Output  | 1.5757     | 1.5757     | 1.5757     |   0.0 |  0.00
Modify  | 10380      | 10380      | 10380      |   0.0 | 30.28
Other   |            | 0.9339     |            |       |  0.00

Nlocal:           4320 ave        4320 max        4320 min
Histogram: 1 0 0 0 0 0 0 0 0 0
Nghost:           5986 ave        5986 max        5986 min
Histogram: 1 0 0 0 0 0 0 0 0 0
Neighs:         672387 ave      672387 max      672387 min
Histogram: 1 0 0 0 0 0 0 0 0 0

Total # of neighbors = 672387
Ave neighs/atom = 155.64514
Neighbor list builds = 792
Dangerous builds = 0
Total wall time: 9:44:23
