LAMMPS (29 Aug 2024 - Update 2)
  using 48 OpenMP thread(s) per MPI task
# 1) Initialization

variable T equal 700  # Target temperature

units real
atom_style charge
boundary p p f  # periodic in x and y, fixed in z

# Read graphene structure
read_data graphene.data
Reading data file ...
  orthogonal box = (0.1502 0.13 -42) to (93.48 93.72 42)
  1 by 1 by 1 MPI processor grid
  reading atoms ...
  6688 atoms
  read_data CPU = 0.029 seconds

# Define group for graphene atoms (type 1)
group graphene type 1
6688 atoms in group graphene

# Use ReaxFF
pair_style reaxff NULL safezone 3.0 mincap 150
pair_coeff * * ffield.reax.FC.txt C F
Reading potential file ffield.reax.FC.txt with DATE: 2013-06-28
WARNING: Changed valency_val to valency_boc for X (src/REAXFF/reaxff_ffield.cpp:300)

# Charge equilibration
fix qeq all qeq/reaxff 10 0.0 10.0 1.0e-6 reaxff maxiter 400

# Apply box relaxation (x/y only)
fix boxrelax all box/relax x 0.0 y 0.0 vmax 0.001
minimize 1.0e-6 1.0e-9 1000 10000

CITE-CITE-CITE-CITE-CITE-CITE-CITE-CITE-CITE-CITE-CITE-CITE-CITE

Your simulation uses code contributions which should be cited:

- pair reaxff command: doi:10.1016/j.parco.2011.08.005

@Article{Aktulga12,
 author = {H. M. Aktulga and J. C. Fogarty and S. A. Pandit and A. Y. Grama},
 title = {Parallel Reactive Molecular Dynamics: {N}umerical Methods and Algorithmic Techniques},
 journal = {Parallel Computing},
 year =    2012,
 volume =  38,
 number =  {4--5},
 pages =   {245--259}
}

- fix qeq/reaxff command: doi:10.1016/j.parco.2011.08.005

@Article{Aktulga12,
 author = {H. M. Aktulga and J. C. Fogarty and S. A. Pandit and A. Y. Grama},
 title = {Parallel Reactive Molecular Dynamics: {N}umerical Methods and Algorithmic Techniques},
 journal = {Parallel Computing},
 year =    2012,
 volume =  38,
 pages =   {245--259}
}

CITE-CITE-CITE-CITE-CITE-CITE-CITE-CITE-CITE-CITE-CITE-CITE-CITE

Neighbor list info ...
  update: every = 1 steps, delay = 0 steps, check = yes
  max neighbors/atom: 2000, page size: 100000
  master list distance cutoff = 12
  ghost atom cutoff = 12
  binsize = 6, bins = 16 16 14
  2 neighbor lists, perpetual/occasional/extra = 2 0 0
  (1) pair reaxff, perpetual
      attributes: half, newton off, ghost
      pair build: half/bin/ghost/newtoff
      stencil: full/ghost/bin/3d
      bin: standard
  (2) fix qeq/reaxff, perpetual, copy from (1)
      attributes: half, newton off
      pair build: copy
      stencil: none
      bin: none
WARNING: Energy due to 3 extra global DOFs will be included in minimizer energies
 (src/min.cpp:219)
Per MPI rank memory allocation (min/avg/max) = 477.7 | 477.7 | 477.7 Mbytes
   Step          Temp          E_pair         E_mol          TotEng         Press          Volume    
         0   0             -1182617.7      0             -1182617.7      115541.11      733717.82    
        13   0             -1216351.4      0             -1216351.4     -451.9433       749408.82    
Loop time of 3.88534 on 48 procs for 13 steps with 6688 atoms

224.4% CPU use with 1 MPI tasks x 48 OpenMP threads

Minimization stats:
  Stopping criterion = energy tolerance
  Energy initial, next-to-last, final = 
     -1182617.71059244  -1216351.21576657  -1216351.37038478
  Force two-norm initial, final = 2630380.6 2920.2487
  Force max component initial, final = 1860015.6 2108.622
  Final line search alpha, max atom move = 1.2398753e-07 0.00026144283
  Iterations, force evaluations = 13 16

MPI task timing breakdown:
Section |  min time  |  avg time  |  max time  |%varavg| %total
---------------------------------------------------------------
Pair    | 3.7335     | 3.7335     | 3.7335     |   0.0 | 96.09
Neigh   | 0.019078   | 0.019078   | 0.019078   |   0.0 |  0.49
Comm    | 0.00041178 | 0.00041178 | 0.00041178 |   0.0 |  0.01
Output  | 0          | 0          | 0          |   0.0 |  0.00
Modify  | 0.127      | 0.127      | 0.127      |   0.0 |  3.27
Other   |            | 0.005311   |            |       |  0.14

Nlocal:           6688 ave        6688 max        6688 min
Histogram: 1 0 0 0 0 0 0 0 0 0
Nghost:           3762 ave        3762 max        3762 min
Histogram: 1 0 0 0 0 0 0 0 0 0
Neighs:     1.2088e+06 ave  1.2088e+06 max  1.2088e+06 min
Histogram: 1 0 0 0 0 0 0 0 0 0

Total # of neighbors = 1208796
Ave neighs/atom = 180.74103
Neighbor list builds = 1
Dangerous builds = 0
unfix boxrelax

# Initial velocity assignment
velocity all create ${T} 4928459 mom yes rot yes dist gaussian
velocity all create 700 4928459 mom yes rot yes dist gaussian

# Z-wall constraint
fix wall all wall/reflect zlo EDGE zhi EDGE

# Define computes for temperature
compute tgraphene graphene temp

# --- Phase 1: NVT Equilibration of Pristine Graphene ---
fix nvt_eq all nvt temp ${T} ${T} 50
fix nvt_eq all nvt temp 700 ${T} 50
fix nvt_eq all nvt temp 700 700 50
thermo 50
timestep 0.5
run 3000
Per MPI rank memory allocation (min/avg/max) = 476.6 | 476.6 | 476.6 Mbytes
   Step          Temp          E_pair         E_mol          TotEng         Press     
        13   700           -1216351.4      0             -1202398.5      399.15106    
        50   366.34807     -1209364.8      0             -1202062.5      8218.7247    
       100   334.04165     -1208162.9      0             -1201504.5      7737.0265    
       150   340.57615     -1207605.8      0             -1200817.2      7655.5786    
       200   408.62916     -1208195        0             -1200049.9      8538.4824    
       250   396.26248     -1207101.8      0             -1199203.2      8958.2826    
       300   417.08163     -1206608.9      0             -1198295.4      8759.5795    
       350   465.11051     -1206616.3      0             -1197345.4      8689.5156    
       400   459.99261     -1205506.5      0             -1196337.6      8674.2216    
       450   496.6422      -1205201        0             -1195301.6      7737.8618    
       500   521.05881     -1204628.3      0             -1194242.2      7249.1498    
       550   541.59375     -1203953.6      0             -1193158.2      6871.9466    
       600   571.6271      -1203474.8      0             -1192080.7      6294.2704    
       650   563.19037     -1202223.3      0             -1190997.4      4972.3415    
       700   601.66376     -1201913.1      0             -1189920.3      3464.9763    
       750   638.62739     -1201607.2      0             -1188877.6      1765.6687    
       800   668.53513     -1201223.5      0             -1187897.8      138.37919    
       850   690.7567      -1200821.3      0             -1187052.7     -1076.1797    
       900   702.82067     -1200383.5      0             -1186374.4     -1440.2309    
       950   726.88714     -1200393.1      0             -1185904.3     -641.68138    
      1000   732.00869     -1200327.5      0             -1185736.6      280.12921    
      1050   744.66275     -1200740.6      0             -1185897.5      1265.5554    
      1100   730.81484     -1200981.8      0             -1186414.7      2141.419     
      1150   710.23103     -1201283.5      0             -1187126.7      2627.9759    
      1200   675.66555     -1201231.7      0             -1187763.9      2469.0773    
      1250   671.05042     -1201544.8      0             -1188169        2712.97      
      1300   660.69674     -1201452.6      0             -1188283.1      2471.9667    
      1350   666.94452     -1201352.8      0             -1188058.8      2131.3606    
      1400   677.41654     -1201049.2      0             -1187546.5      1502.1451    
      1450   694.18133     -1200752.2      0             -1186915.3      974.28702    
      1500   721.76387     -1200720.6      0             -1186333.9      644.72062    
      1550   732.24524     -1200578.6      0             -1185983        674.30158    
      1600   730.84206     -1200551.7      0             -1185984        1099.2201    
      1650   716.16579     -1200585.5      0             -1186310.4      1192.0263    
      1700   710.49072     -1200947.1      0             -1186785.1      1566.0632    
      1750   709.55696     -1201462.4      0             -1187319        1982.8347    
      1800   687.58656     -1201533.8      0             -1187828.4      1675.7076    
      1850   670.56146     -1201546.9      0             -1188180.8      1821.311     
      1900   664.68759     -1201586.2      0             -1188337.2      1864.4008    
      1950   653.79504     -1201256        0             -1188224.1      1652.0456    
      2000   673.43993     -1201216.4      0             -1187793        1644.8859    
      2050   684.66932     -1200851.8      0             -1187204.5      985.35526    
      2100   709.6943      -1200749.2      0             -1186603        1013.347     
      2150   722.78411     -1200563.3      0             -1186156.3      974.7989     
      2200   735.20184     -1200637.2      0             -1185982.7      875.42681    
      2250   725.41045     -1200597        0             -1186137.6      932.83272    
      2300   713.99844     -1200766.4      0             -1186534.5      1422.756     
      2350   714.3153      -1201267.9      0             -1187029.7      1551.8852    
      2400   691.11323     -1201307.6      0             -1187531.9      1785.3635    
      2450   687.8921      -1201638.7      0             -1187927.2      1558.5998    
      2500   669.95862     -1201503.1      0             -1188149        1643.2966    
      2550   672.61924     -1201568.4      0             -1188161.3      1671.5136    
      2600   683.86664     -1201574.7      0             -1187943.5      1736.193     
      2650   679.71914     -1201101.5      0             -1187552.9      1625.5725    
      2700   690.26289     -1200801.3      0             -1187042.5      1498.0852    
      2750   708.38445     -1200678        0             -1186558        1577.1154    
      2800   719.6296      -1200567.3      0             -1186223.1      1581.0321    
      2850   717.80266     -1200413.6      0             -1186105.9      1427.1987    
      2900   727.34452     -1200721.1      0             -1186223.2      2145.0057    
      2950   729.17184     -1201124        0             -1186589.7      2258.8382    
      3000   702.54168     -1201094.9      0             -1187091.3      2262.8004    
      3013   704.67706     -1201261.9      0             -1187215.8      2532.675     
Loop time of 731.978 on 48 procs for 3000 steps with 6688 atoms

Performance: 0.177 ns/day, 135.551 hours/ns, 4.098 timesteps/s, 27.411 katom-step/s
100.2% CPU use with 1 MPI tasks x 48 OpenMP threads

MPI task timing breakdown:
Section |  min time  |  avg time  |  max time  |%varavg| %total
---------------------------------------------------------------
Pair    | 650.71     | 650.71     | 650.71     |   0.0 | 88.90
Neigh   | 0.50905    | 0.50905    | 0.50905    |   0.0 |  0.07
Comm    | 0.064989   | 0.064989   | 0.064989   |   0.0 |  0.01
Output  | 0.087581   | 0.087581   | 0.087581   |   0.0 |  0.01
Modify  | 80.536     | 80.536     | 80.536     |   0.0 | 11.00
Other   |            | 0.06693    |            |       |  0.01

Nlocal:           6688 ave        6688 max        6688 min
Histogram: 1 0 0 0 0 0 0 0 0 0
Nghost:           3762 ave        3762 max        3762 min
Histogram: 1 0 0 0 0 0 0 0 0 0
Neighs:    1.19437e+06 ave 1.19437e+06 max 1.19437e+06 min
Histogram: 1 0 0 0 0 0 0 0 0 0

Total # of neighbors = 1194370
Ave neighs/atom = 178.58403
Neighbor list builds = 23
Dangerous builds = 0
unfix nvt_eq

# --- Phase 2: Insert Fluorine ---

# Define insertion regions
region above_graphene block 3 93 3 93 15 25 units box
region below_graphene block 3 93 3 93 -25 -15 units box

# Insert F atoms (type 2)
create_atoms 2 random 200 12345 above_graphene overlap 1.5
Created 200 atoms
  using lattice units in orthogonal box = (-0.34616894 -0.36769265 -42) to (93.976369 94.217693 42)
  create_atoms CPU = 0.010 seconds
create_atoms 2 random 200 34134 below_graphene overlap 1.5
Created 200 atoms
  using lattice units in orthogonal box = (-0.34616894 -0.36769265 -42) to (93.976369 94.217693 42)
  create_atoms CPU = 0.010 seconds

# Define group for fluorine (type 2)
group gas type 2
400 atoms in group gas

# Assign velocities to newly added fluorine atoms (group gas)
velocity gas create ${T} 4928460 mom yes rot yes dist gaussian
velocity gas create 700 4928460 mom yes rot yes dist gaussian

# Output
dump mydmp all custom 500 dump.lammpstrj id type x y z q
thermo 50

# --- Phase 3: Production run with fluorine ---
fix nvt_main all nvt temp ${T} ${T} 50
fix nvt_main all nvt temp 700 ${T} 50
fix nvt_main all nvt temp 700 700 50
fix reax_bonds all reaxff/bonds 50 bonds.reax

run 50000
Per MPI rank memory allocation (min/avg/max) = 481.1 | 481.1 | 481.1 Mbytes
   Step          Temp          E_pair         E_mol          TotEng         Press     
      3013   704.31431     -1201209        0             -1186330.3      2578.1547    
      3050   728.41125     -1202683.5      0             -1187295.9      2517.1898    
      3100   712.33625     -1202558.6      0             -1187510.5      2275.7736    
      3150   706.79987     -1202645.3      0             -1187714.2      2105.2469    
      3200   704.48751     -1202738.7      0             -1187856.4      1860.9597    
      3250   708.91451     -1202989.8      0             -1188014        1332.3532    
      3300   710.02805     -1203139.5      0             -1188140.1      904.75353    
      3350   688.56331     -1202764.7      0             -1188218.8     -154.45746    
      3400   690.74608     -1202780.9      0             -1188188.9     -720.46634    
      3450   692.54901     -1202689.7      0             -1188059.6     -1353.7068    
      3500   704.83894     -1202788.1      0             -1187898.4     -1700.0391    
      3550   704.45703     -1202684.8      0             -1187803.1     -1784.2112    
      3600   705.87999     -1202710.6      0             -1187798.8     -1539.4369    
      3650   701.37583     -1202679.7      0             -1187863.1     -885.26414    
      3700   712.26485     -1203044.8      0             -1187998.2     -298.32941    
      3750   705.84146     -1203072.2      0             -1188161.3      492.54554    
      3800   704.86155     -1203165.3      0             -1188275.1      844.23766    
      3850   702.8148      -1203189.2      0             -1188342.2      703.34097    
      3900   688.16505     -1202950        0             -1188412.5      796.41884    
      3950   696.04971     -1203170.1      0             -1188466.1      956.63335    
      4000   685.01385     -1202944.5      0             -1188473.6      503.72199    
      4050   687.1599      -1202905.6      0             -1188389.4      97.455288    
      4100   691.40856     -1202793.8      0             -1188187.8     -522.81734    
      4150   701.06882     -1202823.9      0             -1188013.8     -678.07336    
      4200   697.87223     -1202689.2      0             -1187946.6     -394.16082    
      4250   711.2368      -1202993.7      0             -1187968.8     -193.53272    
      4300   707.22371     -1203037.1      0             -1188097        183.13651    
      4350   705.39821     -1203177        0             -1188275.5      620.39699    
      4400   697.82891     -1203162.3      0             -1188420.7      694.97382    
      4450   700.56229     -1203298.5      0             -1188499.1      919.04753    
      4500   698.06545     -1203294.6      0             -1188548        750.71716    
      4550   691.85967     -1203190.9      0             -1188575.3      905.71122    
      4600   691.07531     -1203199        0             -1188600        475.32342    
      4650   697.18196     -1203296.8      0             -1188568.8      478.59357    
      4700   692.22386     -1203052        0             -1188428.7      87.372804    
      4750   713.08997     -1203264.9      0             -1188200.9     -48.102022    
      4800   709.19618     -1203074.5      0             -1188092.7      159.74088    
      4850   713.76249     -1203206.9      0             -1188128.7     -158.91568    
      4900   712.89533     -1203326.1      0             -1188266.2     -42.327469    
      4950   704.06218     -1203306.9      0             -1188433.6     -375.40482    
      5000   702.45414     -1203394.8      0             -1188555.5     -167.55317    
      5050   710.6671      -1203711.2      0             -1188698.4     -314.90583    
      5100   711.28672     -1203849        0             -1188823.1     -477.83236    
      5150   707.33018     -1203860.6      0             -1188918.2     -518.85812    
      5200   691.38854     -1203609.4      0             -1189003.8     -1135.7908    
      5250   695.41932     -1203709.6      0             -1189018.8     -1415.7366    
      5300   691.67208     -1203601.4      0             -1188989.8     -1374.6837    
      5350   697.78908     -1203628.3      0             -1188887.5     -1559.5375    
      5400   696.63803     -1203385.9      0             -1188669.4     -1297.2867    
      5450   718.71673     -1203728        0             -1188545.1     -1021.2944    
      5500   712.37714     -1203643.6      0             -1188594.6     -892.02375    
      5550   714.49089     -1203830.4      0             -1188736.8     -727.09484    
      5600   702.63176     -1203758.3      0             -1188915.2     -1052.047     
      5650   712.51246     -1204111.8      0             -1189060       -335.07734    
      5700   708.45742     -1204189.4      0             -1189223.2     -145.3204     
      5750   697.76624     -1204107.9      0             -1189367.6     -324.30702    
      5800   697.41452     -1204214.3      0             -1189481.4     -367.68496    
      5850   687.65168     -1204065.4      0             -1189538.8     -646.58583    
      5900   690.15874     -1204110.5      0             -1189530.9     -457.5534     
      5950   693.99362     -1204147.7      0             -1189487.1     -448.34722    
      6000   708.23936     -1204382.5      0             -1189420.9     -292.79414    
      6050   692.88223     -1204007.5      0             -1189370.3      70.421488    
      6100   702.60739     -1204155.6      0             -1189313.1      238.03152    
      6150   705.95895     -1204260.1      0             -1189346.7      442.71862    
      6200   705.76516     -1204464.2      0             -1189554.9      551.30134    
      6250   709.58136     -1204754.9      0             -1189764.9      688.316      
      6300   698.41953     -1204640.2      0             -1189886.1      1031.377     
      6350   711.41603     -1205035.6      0             -1190006.9      1254.4491    
      6400   696.1358      -1204894.8      0             -1190189        943.77799    
      6450   697.41802     -1205044.1      0             -1190311.2      1380.2689    
      6500   706.00503     -1205320.2      0             -1190405.8      1378.6502    
      6550   701.3366      -1205304.7      0             -1190489        1088.9293    
      6600   700.78796     -1205353.8      0             -1190549.6      1287.104     
      6650   696.84271     -1205313.8      0             -1190593        1005.9754    
      6700   708.10634     -1205598.8      0             -1190640.1      871.47509    
      6750   701.97911     -1205565.2      0             -1190735.9      889.37813    
      6800   699.36788     -1205706.5      0             -1190932.3      338.94133    
      6850   689.65691     -1205696.4      0             -1191127.4     -165.34236    
      6900   693.6855      -1205818.8      0             -1191164.7     -379.14033    
      6950   701.6652      -1205948.4      0             -1191125.7      128.03175    
      7000   697.07876     -1205826.6      0             -1191100.9     -165.79895    
      7050   704.10187     -1205950.6      0             -1191076.5     -225.22318    
      7100   703.28938     -1205900.9      0             -1191044       -402.34771    
      7150   699.09761     -1205756.2      0             -1190987.7     -461.94068    
      7200   709.67727     -1205874.1      0             -1190882.1      54.316356    
      7250   709.41265     -1205804.5      0             -1190818.2     -324.92123    
      7300   719.7887      -1206054.6      0             -1190849.1     -613.65137    
      7350   706.25936     -1205943        0             -1191023.2     -354.19551    
      7400   709.54256     -1206216.6      0             -1191227.5      61.024602    
      7450   700.92746     -1206168.3      0             -1191361.2      385.7832     
      7500   704.24305     -1206345.8      0             -1191468.7      700.98298    
      7550   702.88596     -1206437.4      0             -1191588.9      1252.1355    
      7600   705.52104     -1206613.4      0             -1191709.3      1036.3938    
      7650   698.74118     -1206595.2      0             -1191834.3      1348.5044    
      7700   711.17459     -1206965.2      0             -1191941.7      1287.0185    
      7750   700.59754     -1206832.9      0             -1192032.8      1252.3522    
      7800   705.77332     -1207026.5      0             -1192117        1244.5934    
      7850   694.26884     -1206857.5      0             -1192191        1188.1687    
      7900   700.74228     -1207016.7      0             -1192213.5      1048.6684    
      7950   692.01668     -1206841        0             -1192222.2      1003.6362    
      8000   691.70582     -1206792        0             -1192179.7      846.07588    
      8050   698.2738      -1206856        0             -1192105        704.43024    
      8100   702.92993     -1206893.9      0             -1192044.5      913.21644    
      8150   696.55696     -1206769.9      0             -1192055.1      1057.2751    
      8200   706.53405     -1207003        0             -1192077.4      1035.4013    
      8250   708.58583     -1207143.7      0             -1192174.8      1330.9764    
      8300   696.95888     -1207031.5      0             -1192308.2      1175.1104    
      8350   698.52392     -1207164.7      0             -1192408.3      1160.8045    
      8400   708.69412     -1207455        0             -1192483.8      1372.0286    
      8450   698.86964     -1207353.9      0             -1192590.3      1025.8175    
      8500   702.97922     -1207536.8      0             -1192686.3      1085.107     
      8550   699.33541     -1207572.1      0             -1192798.6      912.78423    
      8600   694.67928     -1207571.4      0             -1192896.3      838.79357    
      8650   692.01978     -1207572.5      0             -1192953.6      466.50664    
      8700   702.52941     -1207776.9      0             -1192936        666.46819    
      8750   689.29261     -1207357.7      0             -1192796.4      678.64107    
      8800   713.97276     -1207557.6      0             -1192475        1029.5068    
      8850   716.72399     -1207529.6      0             -1192388.8      1389.4627    
      8900   717.50785     -1207631.1      0             -1192473.7      1057.1009    
      8950   711.26241     -1207680.1      0             -1192654.7      824.54622    
      9000   706.24671     -1207769.5      0             -1192850.1      297.47365    
      9050   698.86735     -1207744.4      0             -1192980.8      377.10735    
      9100   697.09166     -1207850.7      0             -1193124.6      625.7326     
      9150   703.89948     -1208117.3      0             -1193247.4      1027.8824    
      9200   698.08915     -1208088.6      0             -1193341.5      705.70705    
      9250   707.13647     -1208327.5      0             -1193389.2      700.9644     
      9300   697.31733     -1208123.8      0             -1193393        1145.6913    
      9350   703.02985     -1208217.6      0             -1193366.1      862.2827     
      9400   692.86387     -1207985.9      0             -1193349.2      851.1772     
      9450   698.3449      -1208032.8      0             -1193280.2      996.28718    
      9500   706.30274     -1208042.7      0             -1193122        320.94257    
      9550   697.64397     -1207714.6      0             -1192976.9      321.75178    
      9600   704.02098     -1207767.4      0             -1192894.9      284.96169    
      9650   708.63403     -1207860.5      0             -1192890.6      268.35655    
      9700   711.15086     -1208025.1      0             -1193002        147.06906    
      9750   710.7681      -1208233.3      0             -1193218.3      646.63875    
      9800   703.80771     -1208229.9      0             -1193362        556.00177    
      9850   702.15669     -1208270.6      0             -1193437.6      991.41822    
      9900   694.87122     -1208205.3      0             -1193526.2      1049.3906    
      9950   694.91961     -1208278        0             -1193597.8      857.5012     
     10000   696.83974     -1208366.9      0             -1193646.1      1167.0312    
     10050   702.28957     -1208521.5      0             -1193685.6      1387.1488    
     10100   700.2565      -1208550.2      0             -1193757.3      1461.5511    
     10150   689.31895     -1208439.3      0             -1193877.5      1426.811     
     10200   691.69096     -1208620.9      0             -1194008.9      1442.9899    
     10250   689.69165     -1208724.9      0             -1194155.1      1141.8474    
     10300   695.01347     -1208883.2      0             -1194201.1      1577.9643    
     10350   691.31523     -1208772.1      0             -1194168.1      1576.5197    
     10400   698.79448     -1208748.1      0             -1193986        1467.3437    
     10450   707.72866     -1208685.7      0             -1193734.9      1377.2554    
     10500   708.39075     -1208639.2      0             -1193674.4      1239.6358    
     10550   704.57745     -1208575.2      0             -1193691        1598.9658    
     10600   713.23517     -1208814        0             -1193746.9      1031.1357    
     10650   699.24575     -1208639.1      0             -1193867.6      785.30005    
     10700   701.88736     -1208800.2      0             -1193972.8      707.88877    
     10750   694.27452     -1208743.4      0             -1194076.8      1265.7313    
     10800   696.4672      -1208868.2      0             -1194155.4      1065.7016    
     10850   701.6256      -1209018.6      0             -1194196.8      1537.4745    
     10900   699.92262     -1208993.4      0             -1194207.5      1705.2806    
     10950   702.62941     -1209023.1      0             -1194180.1      1549.8838    
     11000   699.16206     -1208897        0             -1194127.2      1849.7177    
     11050   695.7747      -1208784        0             -1194085.8      1479.5851    
     11100   708.63995     -1209012.5      0             -1194042.5      1696.2926    
     11150   706.18324     -1208943.4      0             -1194025.3      1125.8333    
     11200   706.29096     -1208953.9      0             -1194033.5      970.49085    
     11250   706.71297     -1209010.2      0             -1194080.9      1123.023     
     11300   704.74126     -1209030        0             -1194142.3      1412.039     
     11350   706.52626     -1209114.6      0             -1194189.3      1424.2335    
     11400   697.1787      -1208989.2      0             -1194261.3      964.78045    
     11450   694.65676     -1208997        0             -1194322.4      1015.505     
     11500   695.59896     -1209080.6      0             -1194386        673.45286    
     11550   700.22551     -1209233        0             -1194440.7      435.06856    
     11600   699.4035      -1209261.8      0             -1194486.9      392.73612    
     11650   694.14        -1209167        0             -1194503.3      397.7274     
     11700   700.50032     -1209295        0             -1194496.9      596.80195    
     11750   708.25385     -1209487.3      0             -1194525.4      645.95239    
     11800   698.4325      -1209379        0             -1194624.6      906.05346    
     11850   696.16196     -1209469.7      0             -1194763.3      1237.9747    
     11900   696.68866     -1209628.5      0             -1194911        1074.3996    
     11950   693.87932     -1209644.1      0             -1194985.9      1660.704     
     12000   692.81949     -1209638.2      0             -1195002.4      1651.81      
     12050   693.23858     -1209611.1      0             -1194966.4      2037.218     
     12100   696.53764     -1209583.1      0             -1194868.8      1889.3245    
     12150   702.5492      -1209524.5      0             -1194683.1      1926.6713    
     12200   706.44489     -1209447.5      0             -1194523.9      1700.4102    
     12250   704.38141     -1209352.5      0             -1194472.4      1120.1543    
     12300   700.64666     -1209297        0             -1194495.9      1204.8396    
     12350   712.31033     -1209613.7      0             -1194566.1      1323.5933    
     12400   701.74667     -1209503.6      0             -1194679.2      1273.7495    
     12450   708.72608     -1209732.4      0             -1194760.6      907.77631    
     12500   707.86047     -1209794.5      0             -1194841        1124.9646    
     12550   706.70785     -1209854        0             -1194924.8      1088.1213    
     12600   702.93062     -1209865.5      0             -1195016.1      1323.1889    
     12650   700.64757     -1209912.5      0             -1195111.3      1310.3291    
     12700   699.51164     -1210002.6      0             -1195225.4      1510.5803    
     12750   694.87126     -1209999.3      0             -1195320.2      1166.8496    
     12800   691.41302     -1209976.9      0             -1195370.8      909.90538    
     12850   694.45365     -1210037.3      0             -1195367        1148.7654    
     12900   699.26726     -1210072.8      0             -1195300.8      1070.9498    
     12950   699.68088     -1209862.2      0             -1195081.4      679.13291    
     13000   702.90281     -1209709.3      0             -1194860.4      622.4126     
     13050   707.29914     -1209753        0             -1194811.3      713.91245    
     13100   708.85855     -1209850.3      0             -1194875.7      780.29526    
     13150   710.96924     -1210057        0             -1195037.8      960.22537    
     13200   715.01591     -1210315.5      0             -1195210.8      1154.6459    
     13250   713.40545     -1210409.8      0             -1195339.1      1072.4133    
     13300   695.92102     -1210140.6      0             -1195439.3      1189.6335    
     13350   701.00318     -1210329.4      0             -1195520.8      1172.8908    
     13400   703.02024     -1210448.9      0             -1195597.6      1589.371     
     13450   703.88899     -1210529.3      0             -1195659.6      1220.266     
     13500   702.55544     -1210552.1      0             -1195710.6      1283.5474    
     13550   694.20253     -1210410        0             -1195745        1043.3022    
     13600   693.55115     -1210411.5      0             -1195760.2      1068.7689    
     13650   694.67346     -1210408.5      0             -1195733.5      661.52999    
     13700   703.11918     -1210508.3      0             -1195654.9      990.58758    
     13750   705.14906     -1210448.2      0             -1195551.9      696.04218    
     13800   711.71631     -1210511        0             -1195476        437.44337    
     13850   703.97893     -1210335.7      0             -1195464.2      237.57333    
     13900   701.01062     -1210368.9      0             -1195560.1      437.45768    
     13950   704.23663     -1210609.8      0             -1195732.8      282.96307    
     14000   706.48669     -1210834.7      0             -1195910.2     -195.96426    
     14050   701.23877     -1210824.4      0             -1196010.7     -14.918298    
     14100   692.78044     -1210671.3      0             -1196036.3      197.68047    
     14150   695.23933     -1210667.2      0             -1195980.2      123.10189    
     14200   699.58176     -1210695.6      0             -1195916.9      279.30733    
     14250   703.2161      -1210697.4      0             -1195842        14.853169    
     14300   707.8629      -1210699.6      0             -1195745.9      559.05039    
     14350   706.13582     -1210603.2      0             -1195686.1      188.99118    
     14400   707.78601     -1210643        0             -1195691        166.60813    
     14450   702.99876     -1210684.4      0             -1195833.6      171.90692    
     14500   694.96537     -1210744.2      0             -1196063.1      163.85952    
     14550   688.96156     -1210761.7      0             -1196207.4      195.22298    
     14600   689.44542     -1210806.1      0             -1196241.6      305.35315    
     14650   702.54747     -1211078.5      0             -1196237.2      174.72096    
     14700   709.38144     -1211185.4      0             -1196199.7      636.92988    
     14750   710.62601     -1211193        0             -1196181.1      659.25045    
     14800   707.2683      -1211155.8      0             -1196214.8      160.77443    
     14850   701.37894     -1211090.8      0             -1196274.2     -148.04454    
     14900   691.02723     -1211000.3      0             -1196402.4     -310.53582    
     14950   687.64608     -1211052.6      0             -1196526.1     -155.03388    
     15000   694.42119     -1211263        0             -1196593.4      79.618119    
     15050   700.3172      -1211416.7      0             -1196622.5     -192.94521    
     15100   689.42199     -1211121.9      0             -1196557.9      362.24544    
     15150   696.69095     -1211054.5      0             -1196336.9      805.44943    
     15200   705.62017     -1211089.6      0             -1196183.3      443.7813     
     15250   701.38375     -1210970.1      0             -1196153.4      391.68797    
     15300   711.89839     -1211230        0             -1196191.1      377.32403    
     15350   698.14005     -1211038.4      0             -1196290.2     -61.18317     
     15400   709.03556     -1211381.9      0             -1196403.5      706.91221    
     15450   691.66807     -1211135.7      0             -1196524.2      45.863852    
     15500   700.45488     -1211368.5      0             -1196571.4      627.98687    
     15550   701.49662     -1211395.9      0             -1196576.8     -284.35913    
     15600   694.94087     -1211231.2      0             -1196550.5      155.59098    
     15650   705.60627     -1211415.3      0             -1196509.4      86.327405    
     15700   703.97855     -1211361.4      0             -1196489.8      84.537589    
     15750   700.86105     -1211296.6      0             -1196490.9     -684.43153    
     15800   704.35909     -1211365.7      0             -1196486.1      444.83358    
     15850   695.06616     -1211182.3      0             -1196499        129.63005    
     15900   689.12847     -1211058.1      0             -1196500.3      262.34808    
     15950   703.73882     -1211346.8      0             -1196480.4      831.03538    
     16000   702.06481     -1211267        0             -1196435.9      908.46625    
     16050   702.20856     -1211186.3      0             -1196352.1      423.10016    
     16100   711.69068     -1211332.2      0             -1196297.8      645.33819    
     16150   711.60932     -1211363.6      0             -1196330.8      133.79017    
     16200   706.07233     -1211363.2      0             -1196447.4      583.75577    
     16250   700.43566     -1211425.1      0             -1196628.4      616.92353    
     16300   695.67749     -1211461.3      0             -1196765.1      348.77208    
     16350   698.81142     -1211591.5      0             -1196829.1      68.272358    
     16400   707.83914     -1211812.1      0             -1196859       -60.57578     
     16450   692.15838     -1211499.6      0             -1196877.7     -647.63654    
     16500   695.98152     -1211542.2      0             -1196839.6     -773.27552    
     16550   690.49044     -1211308.8      0             -1196722.2     -598.78026    
     16600   704.47854     -1211396.8      0             -1196514.7      120.38167    
     16650   706.06512     -1211315.9      0             -1196400.3     -65.742272    
     16700   702.87936     -1211226.3      0             -1196377.9      124.8877     
     16750   707.14123     -1211407.3      0             -1196468.9      118.70437    
     16800   702.40624     -1211424.1      0             -1196585.7      829.13514    
     16850   707.04532     -1211617.9      0             -1196681.6      269.54985    
     16900   703.95765     -1211643        0             -1196771.9      210.6743     
     16950   712.8458      -1211915.8      0             -1196857        1074.7909    
     17000   708.65623     -1211923.9      0             -1196953.5      961.70747    
     17050   696.13726     -1211746.3      0             -1197040.4      843.06007    
     17100   698.93754     -1211877.7      0             -1197112.6      3.3556143    
     17150   695.68049     -1211860.2      0             -1197163.9      297.86893    
     17200   697.28423     -1211904.7      0             -1197174.6     -204.64592    
     17250   692.22924     -1211783.8      0             -1197160.5     -177.08897    
     17300   692.36943     -1211684.3      0             -1197058        7.1005635    
     17350   698.08032     -1211588        0             -1196841.1      232.9799     
     17400   701.8123      -1211526.6      0             -1196700.8      229.75821    
     17450   705.33922     -1211543.6      0             -1196643.4      741.82895    
     17500   707.46594     -1211619.7      0             -1196674.5      885.25958    
     17550   705.28411     -1211686.2      0             -1196787.1      1256.4888    
     17600   699.33708     -1211744.8      0             -1196971.3      1540.864     
     17650   699.43387     -1211890.9      0             -1197115.3      1387.2912    
     17700   695.6727      -1211866.1      0             -1197170        1968.0457    
     17750   704.55506     -1212070.8      0             -1197187.1      1441.3542    
     17800   690.91223     -1211780.7      0             -1197185.1      1701.8128    
     17850   706.65993     -1212079.5      0             -1197151.3      1643.8988    
     17900   703.28556     -1211950.2      0             -1197093.3      2379.4448    
     17950   706.21295     -1211937.9      0             -1197019.1      2142.3598    
     18000   701.64541     -1211740.4      0             -1196918.1      930.60517    
     18050   719.44401     -1212010.2      0             -1196811.9      1492.2491    
     18100   709.43336     -1211749.2      0             -1196762.4      1490.7359    
     18150   718.08546     -1211957.5      0             -1196787.9      1028.0572    
     18200   698.04534     -1211711.9      0             -1196965.7      938.9437     
     18250   695.70822     -1211881.7      0             -1197184.8      736.49803    
     18300   699.20337     -1212076.8      0             -1197306.1      637.20565    
     18350   700.33098     -1212185.6      0             -1197391.1      339.5709     
     18400   702.382       -1212328.1      0             -1197490.2      341.23379    
     18450   699.1124      -1212348.4      0             -1197579.6      222.89109    
     18500   692.85443     -1212282.8      0             -1197646.2      353.54411    
     18550   702.84007     -1212522.6      0             -1197675.1      447.70236    
     18600   693.42544     -1212359.1      0             -1197710.4      697.43528    
     18650   701.09858     -1212519.1      0             -1197708.4      838.81673    
     18700   702.11082     -1212465.4      0             -1197633.3      1001.8439    
     18750   697.31884     -1212234.1      0             -1197503.2      1371.7019    
     18800   709.17498     -1212352.6      0             -1197371.3      1378.2706    
     18850   710.48954     -1212344.2      0             -1197335.2      1676.2319    
     18900   707.2035      -1212356.1      0             -1197416.4      1191.3584    
     18950   703.34668     -1212432.7      0             -1197574.5      1337.3699    
     19000   689.76978     -1212304.5      0             -1197733.1      765.04656    
     19050   690.83758     -1212414.3      0             -1197820.4      644.40631    
     19100   703.60562     -1212705.1      0             -1197841.4      1048.5661    
     19150   704.99997     -1212755.3      0             -1197862.2      619.6319     
     19200   700.02219     -1212670.4      0             -1197882.4      503.54801    
     19250   702.02496     -1212716.9      0             -1197886.6      527.30427    
     19300   699.09167     -1212647        0             -1197878.7      82.431625    
     19350   697.74732     -1212550.6      0             -1197810.7     -206.73595    
     19400   703.38451     -1212480.7      0             -1197621.7     -147.82029    
     19450   703.94253     -1212298.8      0             -1197428       -154.95342    
     19500   714.57372     -1212474.7      0             -1197379.4      260.61323    
     19550   709.72922     -1212465.3      0             -1197472.3      706.79061    
     19600   704.84792     -1212536.4      0             -1197646.5      425.54448    
     19650   705.16144     -1212683.8      0             -1197787.2      1091.8143    
     19700   707.35522     -1212848.9      0             -1197906        1040.2555    
     19750   708.00779     -1212977.2      0             -1198020.5      575.50653    
     19800   706.25893     -1213037.9      0             -1198118.1      738.93222    
     19850   701.71939     -1213019        0             -1198195.2      855.00947    
     19900   701.86875     -1213067.5      0             -1198240.5      598.25243    
     19950   700.73649     -1213059        0             -1198255.9      992.19114    
     20000   698.01378     -1212966.3      0             -1198220.8      841.04431    
     20050   696.16982     -1212813.8      0             -1198107.2      1239.295     
     20100   710.00318     -1212930.6      0             -1197931.8      1218.5549    
     20150   705.61061     -1212714.2      0             -1197808.2      505.55544    
     20200   705.6676      -1212675        0             -1197767.7      864.46293    
     20250   701.29866     -1212617.4      0             -1197802.5      1067.8956    
     20300   707.68756     -1212916.5      0             -1197966.6      907.11243    
     20350   695.88746     -1212918.2      0             -1198217.6      1095.6582    
     20400   706.99942     -1213256.3      0             -1198321        922.53766    
     20450   697.33153     -1213093.5      0             -1198362.3      975.47549    
     20500   704.21758     -1213288.3      0             -1198411.7      292.38294    
     20550   700.05406     -1213236.4      0             -1198447.7      626.26959    
     20600   696.55261     -1213164.6      0             -1198450        233.90632    
     20650   699.67167     -1213195.7      0             -1198415.2     -261.88178    
     20700   696.50033     -1213071.1      0             -1198357.6      204.44744    
     20750   705.05037     -1213165.4      0             -1198271.2      127.55575    
     20800   700.98812     -1212959.6      0             -1198151.2     -26.984165    
     20850   704.26391     -1212934.3      0             -1198056.8     -178.66442    
     20900   709.03074     -1212978.8      0             -1198000.5      21.991962    
     20950   708.71345     -1213020.8      0             -1198049.2      202.64086    
     21000   706.31043     -1213208.4      0             -1198287.6      392.15647    
     21050   700.20964     -1213290        0             -1198498.1      304.23675    
     21100   700.63565     -1213380.9      0             -1198580        938.43302    
     21150   698.63322     -1213389.4      0             -1198630.8      605.57097    
     21200   688.96035     -1213193.7      0             -1198639.4      1005.2674    
     21250   699.61117     -1213386.4      0             -1198607.1      901.94834    
     21300   697.91246     -1213288        0             -1198544.6      1029.1324    
     21350   711.18251     -1213523.1      0             -1198499.4      875.55548    
     21400   704.69868     -1213350.9      0             -1198464.1      483.34917    
     21450   705.96671     -1213330.4      0             -1198416.9      1594.3746    
     21500   708.74525     -1213365.5      0             -1198393.2      983.95055    
     21550   708.52631     -1213397.1      0             -1198429.5      713.60566    
     21600   703.49914     -1213423.8      0             -1198562.4      965.01802    
     21650   700.43892     -1213537.8      0             -1198741        726.01486    
     21700   697.49636     -1213600.3      0             -1198865.7      541.89901    
     21750   700.92181     -1213717.3      0             -1198910.4      209.5893     
     21800   693.87767     -1213570.2      0             -1198912        636.65403    
     21850   696.81247     -1213550.8      0             -1198830.6      686.34418    
     21900   705.24174     -1213616.9      0             -1198718.7      418.67305    
     21950   700.3629      -1213398.6      0             -1198603.5      309.4614     
     22000   719.48623     -1213640.9      0             -1198441.8      399.04511    
     22050   716.22097     -1213441.8      0             -1198311.6      350.84143    
     22100   719.62532     -1213480.5      0             -1198278.5      238.66335    
     22150   713.00055     -1213527.7      0             -1198465.5      446.55715    
     22200   698.17215     -1213501.7      0             -1198752.8      551.17984    
     22250   709.7404      -1213886.9      0             -1198893.6      435.59186    
     22300   693.88725     -1213683.1      0             -1199024.7      674.41253    
     22350   698.94301     -1213869.4      0             -1199104.2      860.68632    
     22400   700.59141     -1213951.5      0             -1199151.5      1127.1505    
     22450   687.61119     -1213707.3      0             -1199181.5      1053.9106    
     22500   686.01394     -1213624.8      0             -1199132.7      1323.9016    
     22550   705.94144     -1213934.2      0             -1199021.2      1286.6459    
     22600   693.83746     -1213565.5      0             -1198908.2      1279.2551    
     22650   708.21012     -1213777.4      0             -1198816.5      1733.6179    
     22700   710.03925     -1213767.4      0             -1198767.8      1267.5869    
     22750   704.15688     -1213651.5      0             -1198776.2      1136.7836    
     22800   699.97805     -1213712.1      0             -1198925.1      909.11363    
     22850   697.35165     -1213916.3      0             -1199184.7      1086.9648    
     22900   696.42798     -1214027.5      0             -1199315.5      873.96809    
     22950   692.40681     -1213985        0             -1199357.9      602.67872    
     23000   693.90149     -1213989.8      0             -1199331.2      69.015112    
     23050   702.72528     -1214091.3      0             -1199246.2      60.18876     
     23100   702.53932     -1213974.9      0             -1199133.8      541.0814     
     23150   703.63133     -1213889.8      0             -1199025.6      810.66959    
     23200   695.47341     -1213630.8      0             -1198938.9      773.35839    
     23250   705.1523      -1213763.7      0             -1198867.4      848.42167    
     23300   715.38063     -1213948.1      0             -1198835.7      710.42754    
     23350   707.75784     -1213948.5      0             -1198997.1      710.97912    
     23400   705.27326     -1214208        0             -1199309.1      429.39083    
     23450   695.59641     -1214132        0             -1199437.6      519.95363    
     23500   707.27566     -1214407.5      0             -1199466.3      112.99741    
     23550   700.53387     -1214267.9      0             -1199469.1      468.31953    
     23600   697.12562     -1214170.4      0             -1199443.7      257.23085    
     23650   699.69916     -1214141.2      0             -1199360.1      647.0643     
     23700   701.84891     -1214086.5      0             -1199259.9      521.73721    
     23750   702.75889     -1214025.4      0             -1199179.6      1006.3309    
     23800   709.96234     -1214150.3      0             -1199152.4      1357.2619    
     23850   702.30576     -1214014.3      0             -1199178.1      593.00052    
     23900   706.25678     -1214273.2      0             -1199353.5      939.76764    
     23950   692.28843     -1214197.9      0             -1199573.3      1700.7544    
     24000   698.35706     -1214456.7      0             -1199703.9      1209.6448    
     24050   697.17825     -1214488.2      0             -1199760.3      1650.2208    
     24100   706.7099      -1214699.5      0             -1199770.2      1740.013     
     24150   697.22705     -1214521.5      0             -1199792.6      1470.1001    
     24200   708.45309     -1214727        0             -1199761        1526.3613    
     24250   696.24212     -1214476.9      0             -1199768.8      1271.5962    
     24300   701.19853     -1214597        0             -1199784.2      1532.2039    
     24350   700.57025     -1214623.8      0             -1199824.2      1651.6626    
     24400   704.56269     -1214784.9      0             -1199901        767.47343    
     24450   703.88706     -1214830.4      0             -1199960.8      1218.3656    
     24500   701.72134     -1214842.4      0             -1200018.5      970.39036    
     24550   696.11354     -1214757.9      0             -1200052.5      978.56117    
     24600   692.35642     -1214709.2      0             -1200083.2      660.51099    
     24650   690.76303     -1214680.4      0             -1200088        235.81216    
     24700   697.90508     -1214761.6      0             -1200018.4      388.3242     
     24750   706.3413      -1214787.2      0             -1199865.7      404.43607    
     24800   711.44813     -1214748.5      0             -1199719.2      49.777502    
     24850   706.2073      -1214605.1      0             -1199686.5      250.42518    
     24900   698.06296     -1214462.5      0             -1199715.9     -58.697392    
     24950   700.25174     -1214603.8      0             -1199811       -353.17995    
     25000   697.96403     -1214730.2      0             -1199985.7     -482.53193    
     25050   708.2706      -1215084.3      0             -1200122.1      104.14543    
     25100   691.92633     -1214796.3      0             -1200179.3     -118.67586    
     25150   693.03667     -1214819.3      0             -1200178.9      454.03838    
     25200   697.07181     -1214884.6      0             -1200158.9     -287.29445    
     25250   693.50818     -1214782        0             -1200131.7      383.96177    
     25300   701.07213     -1214883.7      0             -1200073.5      206.55682    
     25350   706.43083     -1214920.8      0             -1199997.4      286.79886    
     25400   706.7141      -1214875.9      0             -1199946.5      206.36777    
     25450   700.68721     -1214711.7      0             -1199909.6      77.10627     
     25500   703.17834     -1214755        0             -1199900.3      126.30003    
     25550   705.22908     -1214904.7      0             -1200006.7      693.27435    
     25600   696.103       -1214932.8      0             -1200227.6      420.67112    
     25650   693.93447     -1215026.2      0             -1200366.9      50.608816    
     25700   696.96066     -1215117.3      0             -1200394        412.97191    
     25750   703.23691     -1215253.1      0             -1200397.2     -16.595557    
     25800   698.0267      -1215125.2      0             -1200379.4      145.7141     
     25850   695.88797     -1215025.4      0             -1200324.7      295.03761    
     25900   704.84958     -1215123.5      0             -1200233.6     -180.09171    
     25950   703.70447     -1215004.3      0             -1200138.5      382.89303    
     26000   714.41795     -1215128.1      0             -1200036        304.31541    
     26050   701.82595     -1214877.2      0             -1200051.2      494.40623    
     26100   704.40407     -1215109        0             -1200228.4      206.25397    
     26150   700.96785     -1215236.4      0             -1200428.4     -316.94578    
     26200   696.36975     -1215251.9      0             -1200541.1      410.84097    
     26250   695.91891     -1215257.9      0             -1200556.6      214.86577    
     26300   699.76267     -1215308.2      0             -1200525.7      360.2563     
     26350   695.09933     -1215153.1      0             -1200469.1      673.85435    
     26400   701.61357     -1215209.7      0             -1200388.1      502.07114    
     26450   705.03909     -1215165.2      0             -1200271.2      235.77479    
     26500   705.804       -1215038.1      0             -1200128        467.41356    
     26550   714.67001     -1215044.3      0             -1199946.9      373.52383    
     26600   719.5954      -1215075        0             -1199873.6      765.84905    
     26650   708.60359     -1214928.9      0             -1199959.7      702.02954    
     26700   700.59061     -1214919        0             -1200119        998.94353    
     26750   691.17247     -1214798.5      0             -1200197.5      308.93238    
     26800   697.2224      -1214992.3      0             -1200263.4      566.9356     
     26850   701.43306     -1215139.3      0             -1200321.5      930.23598    
     26900   701.79506     -1215215.5      0             -1200390.1      999.74792    
     26950   702.14431     -1215311.2      0             -1200478.4      624.95724    
     27000   698.64391     -1215311.9      0             -1200553        722.59891    
     27050   697.53627     -1215332.7      0             -1200597.2      386.08955    
     27100   702.08363     -1215480.6      0             -1200649.1      677.84509    
     27150   706.18425     -1215592.2      0             -1200674        362.88049    
     27200   699.3396      -1215436.1      0             -1200662.6      224.2888     
     27250   689.92774     -1215187.3      0             -1200612.6      168.11792    
     27300   700.2612      -1215253.4      0             -1200460.4      58.85793     
     27350   702.78358     -1215141.7      0             -1200295.3     -79.150499    
     27400   711.3805      -1215230.1      0             -1200202.1     -69.044412    
     27450   713.67838     -1215279.1      0             -1200202.7     -298.22839    
     27500   706.90033     -1215209.4      0             -1200276.1      7.3154179    
     27550   700.86158     -1215217.8      0             -1200412.1     -78.407153    
     27600   699.21907     -1215320.2      0             -1200549.2      666.03024    
     27650   702.13601     -1215472.7      0             -1200640.1      275.08274    
     27700   695.68714     -1215385.1      0             -1200688.7      403.23003    
     27750   696.71795     -1215403.5      0             -1200685.3     -2.0437243    
     27800   693.76828     -1215328.8      0             -1200672.9      525.18423    
     27850   697.20417     -1215352.1      0             -1200623.7      608.73665    
     27900   701.36354     -1215349.5      0             -1200533.2      1148.3269    
     27950   702.78686     -1215298.1      0             -1200451.7      686.76284    
     28000   703.88483     -1215263.9      0             -1200394.4      746.5765     
     28050   712.76253     -1215411.4      0             -1200354.3      503.98051    
     28100   701.38316     -1215182.6      0             -1200365.9      894.72006    
     28150   699.78098     -1215229.6      0             -1200446.7      467.3457     
     28200   697.51726     -1215341.7      0             -1200606.6      430.54352    
     28250   688.25547     -1215297.3      0             -1200757.9      412.45011    
     28300   693.69021     -1215482.9      0             -1200828.7      170.14123    
     28350   690.41453     -1215447.5      0             -1200862.5      312.79898    
     28400   690.5734      -1215405.5      0             -1200817.2      48.646051    
     28450   699.59313     -1215482.9      0             -1200704        536.24301    
     28500   699.45422     -1215322.6      0             -1200546.6      364.37711    
     28550   696.51518     -1215146.1      0             -1200432.2      1050.2149    
     28600   703.24377     -1215253.3      0             -1200397.3      504.29328    
     28650   709.86984     -1215412.7      0             -1200416.7      452.4692     
     28700   706.04554     -1215406.4      0             -1200491.2      736.43026    
     28750   700.04826     -1215339.2      0             -1200550.7      640.07217    
     28800   694.15359     -1215269        0             -1200605        240.79429    
     28850   702.14314     -1215437.3      0             -1200604.6      514.45543    
     28900   693.025       -1215251.7      0             -1200611.5      404.11014    
     28950   702.21229     -1215450.4      0             -1200616.2      644.77201    
     29000   698.14745     -1215381.6      0             -1200633.3      963.81499    
     29050   705.81095     -1215555.5      0             -1200645.3      1025.4316    
     29100   698.30975     -1215393.4      0             -1200641.6      1449.0503    
     29150   706.28418     -1215555.6      0             -1200635.3      882.06642    
     29200   702.49673     -1215510        0             -1200669.8      1266.0882    
     29250   699.73829     -1215497.5      0             -1200715.5      936.97576    
     29300   709.15742     -1215775.2      0             -1200794.3      552.3922     
     29350   698.87366     -1215630.4      0             -1200866.7      942.86042    
     29400   691.26195     -1215490.4      0             -1200887.5      986.8297     
     29450   695.67833     -1215526.2      0             -1200830        449.36408    
     29500   695.25802     -1215407.3      0             -1200720        394.86316    
     29550   704.05627     -1215434.8      0             -1200561.6      680.25778    
     29600   707.14674     -1215380.4      0             -1200441.9      764.86737    
     29650   710.88541     -1215416.2      0             -1200398.7      1215.7033    
     29700   696.93787     -1215188.7      0             -1200465.9      1129.5701    
     29750   701.27049     -1215374.5      0             -1200560.2      1436.3676    
     29800   704.55642     -1215559        0             -1200675.2      2011.4894    
     29850   693.36493     -1215396        0             -1200748.7      1593.8236    
     29900   697.33171     -1215494.8      0             -1200763.7      1766.814     
     29950   696.82958     -1215490.1      0             -1200769.5      2247.2444    
     30000   697.67917     -1215516.1      0             -1200777.6      1659.6873    
     30050   696.28676     -1215475.1      0             -1200766.1      1398.601     
     30100   700.63233     -1215511.3      0             -1200710.5      776.06533    
     30150   690.90182     -1215212.3      0             -1200617        1021.5072    
     30200   702.92398     -1215315        0             -1200465.7      711.05634    
     30250   708.60094     -1215277.5      0             -1200308.3      662.15763    
     30300   711.98183     -1215287        0             -1200246.3      332.51589    
     30350   703.25526     -1215107.4      0             -1200251.1      1056.9077    
     30400   707.82656     -1215360.4      0             -1200407.5      789.33132    
     30450   700.11279     -1215450        0             -1200660.1      842.61406    
     30500   698.38162     -1215523.9      0             -1200770.6      1591.9979    
     30550   694.6439      -1215479.7      0             -1200805.4      1007.4779    
     30600   700.8063      -1215614.6      0             -1200810.1      1250.8978    
     30650   700.15106     -1215590.8      0             -1200800.1      1464.8547    
     30700   706.5225      -1215712.6      0             -1200787.3      1335.0371    
     30750   701.34552     -1215587        0             -1200771.1      732.4599     
     30800   703.90354     -1215606.9      0             -1200736.9      1215.5543    
     30850   703.45131     -1215607.9      0             -1200747.5      428.86426    
     30900   699.25607     -1215587        0             -1200815.2      973.40527    
     30950   702.55151     -1215805.4      0             -1200963.9      936.00835    
     31000   699.35117     -1215906.1      0             -1201132.3      1330.6212    
     31050   689.10456     -1215807.5      0             -1201250.2      830.1728     
     31100   694.47523     -1215939.8      0             -1201269        895.66492    
     31150   693.01311     -1215886.6      0             -1201246.7      781.1394     
     31200   694.83686     -1215870.6      0             -1201192.2      1166.4818    
     31250   702.50547     -1215971.2      0             -1201130.7      1037.3577    
     31300   710.52592     -1216082.2      0             -1201072.4      675.31216    
     31350   709.17165     -1215957.1      0             -1200975.9      717.28997    
     31400   710.41997     -1215862.5      0             -1200854.9      500.52766    
     31450   713.8458      -1215891.9      0             -1200811.9      934.03969    
     31500   701.61797     -1215706.6      0             -1200884.9      746.60526    
     31550   702.42178     -1215886.4      0             -1201047.8      255.93641    
     31600   702.96814     -1216063.6      0             -1201213.4      30.466901    
     31650   695.28455     -1216007.5      0             -1201319.6      459.64265    
     31700   701.72794     -1216164.5      0             -1201340.5      280.79665    
     31750   691.66995     -1215973        0             -1201361.5      622.09163    
     31800   693.79646     -1216013.9      0             -1201357.4      662.15596    
     31850   695.82548     -1216008.8      0             -1201309.5      732.89033    
     31900   693.20919     -1215855.4      0             -1201211.3      704.22986    
     31950   712.98039     -1216071.5      0             -1201009.7      191.25954    
     32000   708.11317     -1215823.5      0             -1200864.6     -272.27713    
     32050   713.98095     -1215903.7      0             -1200820.9      611.54333    
     32100   705.22045     -1215800.8      0             -1200903        429.52884    
     32150   707.91022     -1216001.3      0             -1201046.7      480.08362    
     32200   700.43844     -1215976.9      0             -1201180.1      1016.2297    
     32250   698.58449     -1216033.4      0             -1201275.8      454.27911    
     32300   696.25869     -1216038.3      0             -1201329.8      1143.0538    
     32350   698.39651     -1216094.7      0             -1201341        611.07098    
     32400   698.18774     -1216084.3      0             -1201335        828.97051    
     32450   688.22668     -1215871.8      0             -1201333.1      893.38254    
     32500   702.57314     -1216116.9      0             -1201275        792.48103    
     32550   694.30799     -1215877.3      0             -1201210        1323.3139    
     32600   711.60966     -1216132.6      0             -1201099.9      696.02099    
     32650   700.83378     -1215794.5      0             -1200989.4      1064.276     
     32700   714.26271     -1216022.2      0             -1200933.4      646.70014    
     32750   711.7123      -1216001.1      0             -1200966.2      555.74743    
     32800   708.20307     -1216100        0             -1201139.2      224.93177    
     32850   699.8439      -1216143.2      0             -1201359        615.26389    
     32900   690.73711     -1216065.4      0             -1201473.6      553.0386     
     32950   700.08897     -1216281.7      0             -1201492.3      333.49342    
     33000   698.44368     -1216227.2      0             -1201472.5      1159.2709    
     33050   693.42519     -1216100.1      0             -1201451.5      247.58641    
     33100   701.76047     -1216217.7      0             -1201393        909.73815    
     33150   704.8309      -1216175.4      0             -1201285.8      913.08255    
     33200   706.99257     -1216070.9      0             -1201135.7      1158.3047    
     33250   714.65971     -1216116        0             -1201018.8      1150.2264    
     33300   714.60572     -1216085.9      0             -1200989.9      1468.7282    
     33350   701.3568      -1215937.6      0             -1201121.4      1393.5839    
     33400   694.16984     -1216083.1      0             -1201418.8      1652.5437    
     33450   695.87967     -1216250.7      0             -1201550.3      1655.2689    
     33500   703.03709     -1216431.8      0             -1201580.2      2404.7084    
     33550   710.5699      -1216575        0             -1201564.2      2201.1348    
     33600   699.4539      -1216349.5      0             -1201573.5      1790.0733    
     33650   704.39524     -1216446.6      0             -1201566.3      981.34045    
     33700   697.89028     -1216305.9      0             -1201563        1720.8435    
     33750   697.58801     -1216275.8      0             -1201539.2      1034.0047    
     33800   694.20136     -1216185.5      0             -1201520.4      912.39047    
     33850   709.31788     -1216507.6      0             -1201523.2      1051.3864    
     33900   699.8714      -1216331.4      0             -1201546.7      949.45208    
     33950   696.66389     -1216295.4      0             -1201578.4      658.10863    
     34000   694.39831     -1216271.3      0             -1201602.2      485.22134    
     34050   701.40301     -1216433.2      0             -1201616.1      311.99836    
     34100   696.31843     -1216324        0             -1201614.3      420.95139    
     34150   700.10604     -1216356.9      0             -1201567.2      493.6503     
     34200   695.34546     -1216191.1      0             -1201501.9      703.59624    
     34250   709.69042     -1216421.5      0             -1201429.3      654.14315    
     34300   705.77192     -1216285.7      0             -1201376.3      867.33911    
     34350   711.81097     -1216370.9      0             -1201333.9      783.54319    
     34400   719.53292     -1216567        0             -1201366.9      513.49742    
     34450   705.79197     -1216478        0             -1201568.1      745.76265    
     34500   700.38001     -1216549        0             -1201753.5      1120.5886    
     34550   690.08086     -1216419.8      0             -1201841.8      1163.4842    
     34600   702.22653     -1216692.7      0             -1201858.2      996.66911    
     34650   689.00035     -1216411.7      0             -1201856.6      623.27662    
     34700   700.05189     -1216614.6      0             -1201826        1087.5403    
     34750   700.12011     -1216559.6      0             -1201769.5      1189.0607    
     34800   703.44192     -1216508.9      0             -1201648.6      654.20379    
     34850   707.5823      -1216431.6      0             -1201484        783.78216    
     34900   711.67745     -1216386.6      0             -1201352.4      524.03422    
     34950   709.88365     -1216334.5      0             -1201338.2      699.15955    
     35000   705.86642     -1216398        0             -1201486.5      281.15488    
     35050   699.42875     -1216464.6      0             -1201689.2     -222.98006    
     35100   702.2478      -1216624.8      0             -1201789.8     -65.913602    
     35150   700.31455     -1216629        0             -1201834.8     -290.95345    
     35200   708.33362     -1216805.5      0             -1201841.9     -636.5644     
     35250   692.7668      -1216494.5      0             -1201859.8     -469.92054    
     35300   707.23539     -1216800.5      0             -1201860.1     -47.541579    
     35350   702.37917     -1216725.5      0             -1201887.7      174.78277    
     35400   697.73698     -1216681.6      0             -1201941.9     -131.56568    
     35450   702.90029     -1216858.2      0             -1202009.5      253.84648    
     35500   700.83483     -1216936.7      0             -1202131.5     -179.59435    
     35550   692.13039     -1216867.1      0             -1202245.8     -39.741308    
     35600   696.34802     -1217006.5      0             -1202296.1      502.48798    
     35650   699.40936     -1217006        0             -1202230.9      804.69975    
     35700   695.75937     -1216775.9      0             -1202077.9      597.56116    
     35750   702.82383     -1216718.1      0             -1201870.9      756.6823     
     35800   701.55017     -1216625        0             -1201804.8      1045.6904    
     35850   705.04911     -1216720.8      0             -1201826.6      538.31045    
     35900   702.69831     -1216724.5      0             -1201880        685.12139    
     35950   708.49157     -1216919.2      0             -1201952.3      603.8486     
     36000   713.10069     -1217144.2      0             -1202080        448.51416    
     36050   694.52201     -1216887.7      0             -1202216        120.86404    
     36100   694.55742     -1216937.4      0             -1202264.8      103.61811    
     36150   692.23191     -1216885.7      0             -1202262.3     -35.728906    
     36200   704.48067     -1217113        0             -1202230.8      807.88677    
     36250   699.52282     -1216990.9      0             -1202213.5      220.35967    
     36300   703.99801     -1217083.8      0             -1202211.8      426.45425    
     36350   699.58146     -1216964.3      0             -1202185.7      372.99406    
     36400   703.87764     -1217030.6      0             -1202161.2     -255.58808    
     36450   699.74987     -1216850.8      0             -1202068.6     -59.190447    
     36500   714.94075     -1217008.1      0             -1201905        58.304172    
     36550   707.93251     -1216780        0             -1201824.9     -184.84738    
     36600   709.21609     -1216849.9      0             -1201867.7     -257.01922    
     36650   713.17158     -1217106.4      0             -1202040.7      516.94441    
     36700   703.43611     -1217105.6      0             -1202245.5      608.47248    
     36750   697.18023     -1217071.4      0             -1202343.5      247.63118    
     36800   707.12702     -1217342.7      0             -1202404.6      393.28413    
     36850   699.16207     -1217222.5      0             -1202452.7      473.55505    
     36900   693.13844     -1217145.7      0             -1202503.1     -252.47572    
     36950   693.80522     -1217150        0             -1202493.4     -2.7737479    
     37000   685.46616     -1216927.9      0             -1202447.5      338.09936    
     37050   700.56741     -1217085.2      0             -1202285.7      296.5674     
     37100   699.22481     -1216886.1      0             -1202115       -71.623117    
     37150   709.4162      -1216996.3      0             -1202009.8      509.57334    
     37200   704.27353     -1216892.3      0             -1202014.5     -92.728131    
     37250   713.46822     -1217155.5      0             -1202083.5      393.7051     
     37300   707.0118      -1217142.1      0             -1202206.5      483.41832    
     37350   702.88233     -1217195.2      0             -1202346.8      947.19072    
     37400   705.48535     -1217315        0             -1202411.7      1092.0301    
     37450   703.64188     -1217299.8      0             -1202435.4      671.07825    
     37500   698.14138     -1217183.2      0             -1202434.9      824.3203     
     37550   704.91809     -1217290.2      0             -1202398.8      823.03642    
     37600   705.21844     -1217223.6      0             -1202325.9      1094.0442    
     37650   712.04807     -1217289.9      0             -1202247.9      1211.7708    
     37700   706.73798     -1217141.2      0             -1202211.4      1098.0571    
     37750   698.00412     -1216969.1      0             -1202223.8      1045.2791    
     37800   705.42179     -1217197.2      0             -1202295.1      818.93248    
     37850   689.84424     -1217025.3      0             -1202452.4      690.88946    
     37900   694.80609     -1217288.6      0             -1202610.9      888.7427     
     37950   691.03967     -1217318.7      0             -1202720.4      779.62481    
     38000   696.10188     -1217446.6      0             -1202741.5      856.07129    
     38050   699.22289     -1217492.8      0             -1202721.7      918.452      
     38100   692.15506     -1217238.4      0             -1202616.7      1136.077     
     38150   695.73585     -1217125.4      0             -1202428        794.69488    
     38200   708.44466     -1217231.8      0             -1202265.9      994.45255    
     38250   701.90741     -1217070.4      0             -1202242.6      973.28757    
     38300   696.78686     -1216966.4      0             -1202246.8      1268.3258    
     38350   699.21091     -1217092.2      0             -1202321.4      430.11671    
     38400   704.71833     -1217288.4      0             -1202401.2      970.25563    
     38450   692.62839     -1217149.4      0             -1202517.6      773.66145    
     38500   698.18872     -1217328.9      0             -1202579.6      855.25432    
     38550   702.74913     -1217461.1      0             -1202615.5      799.91007    
     38600   704.97449     -1217514.5      0             -1202621.9      424.55342    
     38650   695.40414     -1217279.1      0             -1202588.7      393.26224    
     38700   695.06762     -1217147        0             -1202463.7      586.39313    
     38750   697.98669     -1217048.3      0             -1202303.4      328.12147    
     38800   705.6324      -1217107.6      0             -1202201.1      141.68853    
     38850   712.28738     -1217208.8      0             -1202161.8      383.38876    
     38900   713.22916     -1217285.2      0             -1202218.3      1002.7583    
     38950   711.59533     -1217386.5      0             -1202354        2.8722359    
     39000   695.70501     -1217225.9      0             -1202529.1      140.91138    
     39050   698.45792     -1217386.2      0             -1202631.3      626.68828    
     39100   695.34543     -1217351.4      0             -1202662.2      952.82237    
     39150   700.03919     -1217426.2      0             -1202637.9      147.32184    
     39200   700.10885     -1217368.6      0             -1202578.8      342.28571    
     39250   706.39757     -1217444.8      0             -1202522.2      293.22838    
     39300   705.29573     -1217362.6      0             -1202463.3     -2.4759617    
     39350   711.84081     -1217441.2      0             -1202403.6      254.82682    
     39400   705.35754     -1217267.3      0             -1202366.6      114.74125    
     39450   707.89894     -1217319.4      0             -1202365       -239.77829    
     39500   708.61854     -1217355.1      0             -1202385.5     -122.38965    
     39550   701.19077     -1217286.6      0             -1202474        38.069297    
     39600   690.93247     -1217387.3      0             -1202791.3      148.62917    
     39650   685.82873     -1217465.4      0             -1202977.3      551.68066    
     39700   688.41732     -1217531.6      0             -1202988.8      409.64288    
     39750   688.24074     -1217445.5      0             -1202906.4      312.65058    
     39800   690.93742     -1217365.2      0             -1202769.2     -181.00261    
     39850   694.79466     -1217266.1      0             -1202588.6      544.13063    
     39900   707.40123     -1217420.9      0             -1202477        182.69994    
     39950   702.77618     -1217263.1      0             -1202416.9      728.0705     
     40000   701.12061     -1217197.1      0             -1202385.9      580.62647    
     40050   698.21602     -1217147.1      0             -1202397.3      929.31988    
     40100   698.58015     -1217215.3      0             -1202457.8      1192.6779    
     40150   702.63934     -1217420.1      0             -1202576.9      847.4346     
     40200   697.91221     -1217487.3      0             -1202743.9      842.17615    
     40250   690.61549     -1217509.9      0             -1202920.7      866.46519    
     40300   691.0839      -1217552.7      0             -1202953.5      1228.1965    
     40350   689.98251     -1217462.4      0             -1202886.6      687.46249    
     40400   700.82789     -1217566.7      0             -1202761.7      1228.5978    
     40450   700.08905     -1217476.4      0             -1202687        1006.084     
     40500   689.92905     -1217201.7      0             -1202626.9      1250.0482    
     40550   702.88839     -1217389        0             -1202540.5      1035.5676    
     40600   696.14198     -1217155.4      0             -1202449.4      951.90015    
     40650   706.04458     -1217299.9      0             -1202384.7      1560.2642    
     40700   695.10168     -1217041.2      0             -1202357.2      1256.9548    
     40750   689.84459     -1216918        0             -1202345        1305.7247    
     40800   698.17662     -1217070.6      0             -1202321.6      1729.5868    
     40850   702.29052     -1217183        0             -1202347.1      1645.4863    
     40900   706.18491     -1217376.3      0             -1202458.2      1428.7689    
     40950   697.34723     -1217355.2      0             -1202623.7      1394.4626    
     41000   701.68503     -1217564.6      0             -1202741.5      1106.2965    
     41050   697.91223     -1217551        0             -1202807.6      1608.4043    
     41100   691.7755      -1217441.4      0             -1202827.7      1257.913     
     41150   701.30275     -1217600.5      0             -1202785.5      928.86752    
     41200   697.89764     -1217396.3      0             -1202653.2      890.23504    
     41250   700.18057     -1217269        0             -1202477.7      911.32872    
     41300   697.81354     -1217111.2      0             -1202369.9      1428.334     
     41350   703.89309     -1217188.4      0             -1202318.6      1006.9984    
     41400   702.34925     -1217168.6      0             -1202331.4      908.64548    
     41450   707.08615     -1217310.1      0             -1202372.9      1203.6493    
     41500   716.32464     -1217565.4      0             -1202433        664.38534    
[...]
     42300   704.50683     -1217453.9      0             -1202571.2      330.65651    
     42350   702.88122     -1217384.1      0             -1202535.8      346.7887     
     42400   697.21139     -1217255.4      0             -1202526.8      347.56171    
     42450   702.64354     -1217404.1      0             -1202560.8      380.43349    
     42500   698.88029     -1217413.7      0             -1202649.8      58.516481    
     42550   692.67069     -1217466.3      0             -1202833.7     -216.515      
     42600   687.24689     -1217505.3      0             -1202987.2      301.31377    
     42650   692.5834      -1217670.3      0             -1203039.5      707.78924    
     42700   684.88533     -1217479.6      0             -1203011.4      151.15976    
     42750   695.34577     -1217605.9      0             -1202916.7      257.10562    
     42800   697.57429     -1217507.3      0             -1202771.1      719.18576    
     42850   698.73573     -1217392.1      0             -1202631.3      589.03268    
     42900   698.98774     -1217345.6      0             -1202579.5      467.14078    
     42950   709.08128     -1217540.9      0             -1202561.6      382.71646    
     43000   708.45167     -1217552.9      0             -1202586.8      729.00513    
     43050   705.94979     -1217552.4      0             -1202639.3      355.21236    
     43100   693.2218      -1217338        0             -1202693.7      812.91071    
     43150   698.08927     -1217516.3      0             -1202769.1      775.64066    
     43200   699.6674      -1217619.5      0             -1202839        905.08411    
     43250   690.43274     -1217530.3      0             -1202944.9      1288.5296    
     43300   682.85607     -1217519.9      0             -1203094.6      984.07832    
     43350   694.7908      -1217857.3      0             -1203179.8      1199.9642    
     43400   696.75647     -1217863.7      0             -1203144.7      916.36626    
     43450   696.48799     -1217699        0             -1202985.7      874.18132    
     43500   691.50006     -1217378.7      0             -1202770.8      907.61571    
     43550   706.9272      -1217589.1      0             -1202655.2      468.87959    
     43600   702.53991     -1217475.2      0             -1202634        172.23592    
     43650   706.66821     -1217571.7      0             -1202643.3      120.84228    
     43700   709.26257     -1217665.8      0             -1202682.7      356.12194    
     43750   699.05915     -1217548.1      0             -1202780.5      844.9802     
     43800   697.85776     -1217669.8      0             -1202927.6      893.3393     
     43850   694.50078     -1217700.4      0             -1203029.1      524.20049    
     43900   705.65472     -1218015.1      0             -1203108.1      875.25266    
     43950   692.20144     -1217770.3      0             -1203147.6      860.47047    
     44000   691.67839     -1217712        0             -1203100.3      748.96121    
     44050   696.34524     -1217598        0             -1202887.7      765.47082    
     44100   703.85523     -1217573.7      0             -1202704.8      469.92456    
     44150   705.52791     -1217537.6      0             -1202633.3      262.91965    
     44200   703.84392     -1217461.4      0             -1202592.7      801.17618    
     44250   694.55166     -1217293.3      0             -1202620.9      942.21415    
     44300   695.49075     -1217383.8      0             -1202691.5      696.42149    
     44350   704.64683     -1217736.2      0             -1202850.5      511.11       
     44400   697.01494     -1217748.7      0             -1203024.2      416.26372    
     44450   687.01517     -1217617.5      0             -1203104.3      311.37036    
     44500   702.56287     -1217947.5      0             -1203105.9      865.47248    
     44550   685.84481     -1217582.1      0             -1203093.6      391.39936    
     44600   698.88153     -1217774.5      0             -1203010.7      958.70066    
     44650   701.12775     -1217735        0             -1202923.7      513.26041    
     44700   701.97487     -1217701.2      0             -1202872        682.89042    
     44750   700.63823     -1217648.3      0             -1202847.3      173.66204    
     44800   702.85652     -1217688.4      0             -1202840.6      549.81555    
     44850   700.09556     -1217651.7      0             -1202862.2      81.944292    
     44900   701.54995     -1217706.7      0             -1202886.4      247.35827    
     44950   694.33383     -1217586        0             -1202918.2     -52.363717    
     45000   704.26314     -1217791.8      0             -1202914.2      701.60735    
     45050   704.61166     -1217806.2      0             -1202921.3      342.24447    
     45100   699.46922     -1217720.7      0             -1202944.4     -181.00119    
     45150   695.29048     -1217645.8      0             -1202957.8      66.977701    
     45200   698.07153     -1217730.3      0             -1202983.6      395.97829    
     45250   693.8967      -1217652.5      0             -1202993.9      693.39436    
     45300   707.31169     -1217897.4      0             -1202955.4      277.01616    
     45350   700.82112     -1217673.7      0             -1202868.8      325.36919    
     45400   699.45359     -1217559.6      0             -1202783.7      173.27309    
     45450   703.11917     -1217596.9      0             -1202743.5      550.8498     
     45500   706.4622      -1217644.8      0             -1202720.8      636.9704     
     45550   698.72676     -1217492.1      0             -1202731.5      80.809392    
     45600   695.32565     -1217460.2      0             -1202771.4      555.0669     
     45650   702.15218     -1217694.1      0             -1202861.1      1270.6096    
     45700   687.58654     -1217534.7      0             -1203009.4      1008.1011    
     45750   694.30389     -1217797.4      0             -1203130.2      1245.07      
     45800   694.52534     -1217874.5      0             -1203202.7      1087.3685    
     45850   686.25195     -1217703.8      0             -1203206.7      1097.2479    
     45900   697.95026     -1217796.8      0             -1203052.6      1366.4482    
     45950   695.32479     -1217499.8      0             -1202811        628.54954    
     46000   709.88239     -1217685.4      0             -1202689.1      618.32159    
     46050   707.32444     -1217647.9      0             -1202705.7      875.9774     
     46100   696.05676     -1217468.6      0             -1202764.4      428.11807    
     46150   695.90069     -1217527.7      0             -1202826.8      657.62659    
     46200   700.30611     -1217676.4      0             -1202882.4      475.32779    
     46250   701.1447      -1217788.3      0             -1202976.7      542.20583    
     46300   695.66607     -1217804.5      0             -1203108.5      1223.2352    
     46350   695.05062     -1217921.4      0             -1203238.5      767.12527    
     46400   693.26674     -1217958.5      0             -1203313.3      859.38077    
     46450   691.04571     -1217924        0             -1203325.7      1239.3529    
     46500   690.6442      -1217811.8      0             -1203221.9      768.74886    
     46550   704.57765     -1217855        0             -1202970.8      1215.4911    
     46600   702.5933      -1217673.3      0             -1202831        822.48207    
     46650   698.55287     -1217519.4      0             -1202762.5      397.55846    
     46700   704.94224     -1217632.6      0             -1202740.7      684.45322    
     46750   703.32432     -1217662.5      0             -1202804.8      928.18193    
     46800   701.66789     -1217760.2      0             -1202937.5      711.90365    
     46850   702.85365     -1217943.1      0             -1203095.3      767.93554    
     46900   702.71961     -1218065.7      0             -1203220.8      908.04119    
     46950   693.96616     -1217923.2      0             -1203263.2      883.90737    
     47000   695.63119     -1217945.2      0             -1203249.9      1016.0074    
     47050   694.39042     -1217881.8      0             -1203212.8      1244.8449    
     47100   699.41432     -1217914.3      0             -1203139.2      1111.992     
     47150   695.50777     -1217771.2      0             -1203078.6      1110.4954    
     47200   703.33184     -1217872.3      0             -1203014.4      894.28387    
     47250   702.36331     -1217834.2      0             -1202996.8      2038.4108    
     47300   703.69462     -1217847.7      0             -1202982.1      868.29721    
     47350   707.42053     -1218005.3      0             -1203061.1      912.79088    
     47400   692.85269     -1217857.2      0             -1203220.7      588.40103    
     47450   696.90292     -1218087        0             -1203364.9      866.2124     
     47500   686.77022     -1217971.3      0             -1203463.3      578.29676    
     47550   686.05201     -1217972.9      0             -1203480        793.24392    
     47600   699.52655     -1218204.2      0             -1203426.7      998.28351    
     47650   693.41703     -1217953.9      0             -1203305.5      352.21752    
     47700   705.19547     -1218032.4      0             -1203135.2      353.78948    
     47750   703.03972     -1217876.8      0             -1203025.1      353.54599    
     47800   707.7272      -1217919.8      0             -1202969.1      400.80286    
     47850   696.02755     -1217713.7      0             -1203010.2      118.51964    
     47900   709.78133     -1218048.6      0             -1203054.5      438.9837     
     47950   702.63701     -1217980.8      0             -1203137.6      288.49128    
     48000   703.60408     -1218089        0             -1203225.4      48.140524    
     48050   693.32372     -1218009        0             -1203362.6      327.8145     
     48100   685.31227     -1217988.6      0             -1203511.4      535.93346    
     48150   686.58011     -1218206.8      0             -1203702.8      643.5753     
     48200   684.00991     -1218376.3      0             -1203926.6      630.94323    
     48250   682.98855     -1218398.6      0             -1203970.4      573.5245     
     48300   690.82785     -1218434.8      0             -1203841.1      169.50227    
     48350   690.35269     -1218241.6      0             -1203657.9      395.16559    
     48400   694.94124     -1218237.3      0             -1203556.6      692.1737     
     48450   692.56639     -1218086.5      0             -1203456.1      1057.8734    
     48500   699.09398     -1218089.7      0             -1203321.3      1068.7691    
     48550   700.72197     -1217998.1      0             -1203195.3      615.64822    
     48600   706.24521     -1218019        0             -1203099.5      706.00126    
     48650   704.35954     -1217928        0             -1203048.4      579.40689    
     48700   699.6036      -1217835.7      0             -1203056.6      472.1751     
     48750   703.37931     -1218005.6      0             -1203146.7      98.643447    
     48800   701.23194     -1218099.7      0             -1203286.2      194.22794    
     48850   698.9447      -1218183.6      0             -1203418.4      843.01308    
     48900   692.57818     -1218113.5      0             -1203482.8      200.93972    
     48950   694.99205     -1218160.8      0             -1203479.1      578.68229    
     49000   708.1986      -1218383.7      0             -1203423        284.96811    
     49050   704.70032     -1218192.6      0             -1203305.8      600.26897    
     49100   706.0794      -1217945.5      0             -1203029.6      486.31182    
     49150   716.87041     -1217995.9      0             -1202852        916.21662    
     49200   717.7101      -1218021.3      0             -1202859.6      1261.5332    
     49250   699.48004     -1217755        0             -1202978.5      1029.4297    
     49300   705.53677     -1218044.7      0             -1203140.2      196.88195    
     49350   703.1093      -1218156.3      0             -1203303.1      587.0164     
     49400   693.81999     -1218084.2      0             -1203427.2      436.99718    
     49450   702.11499     -1218313        0             -1203480.8      503.93121    
     49500   697.50973     -1218239.4      0             -1203504.5      159.28841    
     49550   697.44358     -1218220.7      0             -1203487.2      716.23682    
     49600   695.58299     -1218138.1      0             -1203443.9      229.19469    
     49650   701.84314     -1218149.9      0             -1203323.5      539.17035    
     49700   704.89949     -1218043.7      0             -1203152.7      800.87609    
     49750   707.64351     -1217963        0             -1203014        229.42274    
     49800   703.81443     -1217849.2      0             -1202981.2      532.41992    
     49850   701.64573     -1217857.3      0             -1203035.1      667.3715     
     49900   709.25157     -1218139.5      0             -1203156.5      408.5296     
     49950   707.53758     -1218233.5      0             -1203286.8      210.09784    
     50000   708.4488      -1218326.2      0             -1203360.2      191.7204     
     50050   706.21341     -1218307.1      0             -1203388.3      493.74853    
     50100   704.11341     -1218293        0             -1203418.6      295.83635    
     50150   696.65208     -1218158.6      0             -1203441.8      293.17629    
     50200   700.05803     -1218255.1      0             -1203466.4      748.45525    
     50250   692.5718      -1218092.5      0             -1203462        690.64914    
     50300   694.00829     -1218095.3      0             -1203434.3     -326.55631    
     50350   699.4661      -1218164.5      0             -1203388.3     -194.11966    
     50400   704.27066     -1218183.2      0             -1203305.4      316.13226    
     50450   701.43037     -1218066.2      0             -1203248.5      135.10831    
     50500   706.48425     -1218133.1      0             -1203208.6      419.53635    
     50550   697.26024     -1217950.8      0             -1203221.2      339.53891    
     50600   700.59281     -1218105.8      0             -1203305.8      847.3013     
     50650   704.47669     -1218353.9      0             -1203471.8      847.61857    
     50700   691.50281     -1218221.6      0             -1203613.6      561.62994    
     50750   688.35997     -1218225.6      0             -1203684        414.43107    
     50800   694.5336      -1218344.8      0             -1203672.8      627.69424    
     50850   701.81806     -1218478.3      0             -1203652.4      653.63098    
     50900   697.64122     -1218300.8      0             -1203563.2      487.15216    
     50950   705.34245     -1218257.7      0             -1203357.3      661.09438    
     51000   712.95408     -1218197.8      0             -1203136.7      1170.0983    
     51050   716.80977     -1218250.3      0             -1203107.7      632.22376    
     51100   704.99918     -1218083.9      0             -1203190.8      383.94524    
     51150   710.83118     -1218322.8      0             -1203306.5      589.98699    
     51200   703.22651     -1218290        0             -1203434.4      898.98944    
     51250   699.31543     -1218292.4      0             -1203519.4      422.12323    
     51300   702.40575     -1218427.4      0             -1203589.1      936.08623    
     51350   704.07857     -1218493.5      0             -1203619.9      466.64311    
     51400   707.31752     -1218573.5      0             -1203631.4      374.12687    
     51450   687.99329     -1218167.3      0             -1203633.5      128.9824     
     51500   696.43305     -1218253.9      0             -1203541.7      586.60159    
     51550   704.68196     -1218199.1      0             -1203312.7      703.14399    
     51600   709.22567     -1218107.4      0             -1203125        443.22459    
     51650   709.87215     -1218083.6      0             -1203087.5      681.10395    
     51700   707.92112     -1218121.6      0             -1203166.8      345.28721    
     51750   699.78661     -1218075.3      0             -1203292.3     -21.716531    
     51800   697.95026     -1218167.8      0             -1203423.6      322.77407    
     51850   700.41567     -1218299.3      0             -1203503        768.02273    
     51900   700.24271     -1218333        0             -1203540.4      547.87095    
     51950   706.90166     -1218504.8      0             -1203571.5      606.1009     
     52000   695.54209     -1218287.6      0             -1203594.2      560.43329    
     52050   703.85361     -1218454.4      0             -1203585.5      504.84992    
     52100   697.73036     -1218293.8      0             -1203554.3      534.75444    
     52150   697.25519     -1218160.5      0             -1203431        440.36603    
     52200   703.16458     -1218050.6      0             -1203196.2      542.50214    
     52250   711.5512      -1218106.7      0             -1203075.2      100.96595    
     52300   718.38964     -1218258.1      0             -1203082.1      135.34304    
     52350   713.81093     -1218271.9      0             -1203192.6      786.99014    
     52400   701.32139     -1218186.1      0             -1203370.7      636.95575    
     52450   700.32443     -1218279.2      0             -1203484.9      802.32402    
     52500   705.14654     -1218453.6      0             -1203557.3      916.6236     
     52550   703.77732     -1218464.3      0             -1203597        424.27681    
     52600   701.74605     -1218458.7      0             -1203634.3      1005.2145    
     52650   704.93312     -1218516.5      0             -1203624.8      426.83903    
     52700   706.44111     -1218532.9      0             -1203609.4      1012.0245    
     52750   706.13842     -1218439.9      0             -1203522.8      615.48746    
     52800   700.30083     -1218108.1      0             -1203314.2      238.24797    
     52850   699.15878     -1217918.5      0             -1203148.8      20.745068    
     52900   704.63913     -1217975.9      0             -1203090.4      325.27729    
     52950   702.54214     -1217988        0             -1203146.8      487.10807    
     53000   711.31052     -1218295.6      0             -1203269.2      898.11714    
     53013   708.07453     -1218283.5      0             -1203325.5      907.01026    
Loop time of 13000.6 on 48 procs for 50000 steps with 7088 atoms

Performance: 0.166 ns/day, 144.451 hours/ns, 3.846 timesteps/s, 27.260 katom-step/s
100.3% CPU use with 1 MPI tasks x 48 OpenMP threads

MPI task timing breakdown:
Section |  min time  |  avg time  |  max time  |%varavg| %total
---------------------------------------------------------------
Pair    | 11559      | 11559      | 11559      |   0.0 | 88.91
Neigh   | 12.772     | 12.772     | 12.772     |   0.0 |  0.10
Comm    | 1.1606     | 1.1606     | 1.1606     |   0.0 |  0.01
Output  | 3.7793     | 3.7793     | 3.7793     |   0.0 |  0.03
Modify  | 1422.8     | 1422.8     | 1422.8     |   0.0 | 10.94
Other   |            | 1.128      |            |       |  0.01

Nlocal:           7088 ave        7088 max        7088 min
Histogram: 1 0 0 0 0 0 0 0 0 0
Nghost:           4096 ave        4096 max        4096 min
Histogram: 1 0 0 0 0 0 0 0 0 0
Neighs:    1.28855e+06 ave 1.28855e+06 max 1.28855e+06 min
Histogram: 1 0 0 0 0 0 0 0 0 0

Total # of neighbors = 1288554
Ave neighs/atom = 181.79374
Neighbor list builds = 516
Dangerous builds = 0
Total wall time: 3:48:57
