LAMMPS (29 Aug 2024 - Update 2)
  using 48 OpenMP thread(s) per MPI task
# 1) Initialization

variable T equal 700  # Target temperature

units real
atom_style charge
boundary p p f  # periodic in x and y, fixed in z

# Read graphene structure
read_data graphene.data
Reading data file ...
  orthogonal box = (0.1502 0.13 -42) to (93.48 93.72 42)
  1 by 1 by 1 MPI processor grid
  reading atoms ...
  6688 atoms
  read_data CPU = 0.028 seconds

# Define group for graphene atoms (type 1)
group graphene type 1
6688 atoms in group graphene

# Use ReaxFF
pair_style reaxff NULL safezone 3.0 mincap 150
pair_coeff * * ffield.reax.FC.txt C F
Reading potential file ffield.reax.FC.txt with DATE: 2013-06-28
WARNING: Changed valency_val to valency_boc for X (src/REAXFF/reaxff_ffield.cpp:300)

# Charge equilibration
fix qeq all qeq/reaxff 10 0.0 10.0 1.0e-6 reaxff maxiter 400

# Apply box relaxation (x/y only)
fix boxrelax all box/relax x 0.0 y 0.0 vmax 0.001
minimize 1.0e-6 1.0e-9 1000 10000

CITE-CITE-CITE-CITE-CITE-CITE-CITE-CITE-CITE-CITE-CITE-CITE-CITE

Your simulation uses code contributions which should be cited:

- pair reaxff command: doi:10.1016/j.parco.2011.08.005

@Article{Aktulga12,
 author = {H. M. Aktulga and J. C. Fogarty and S. A. Pandit and A. Y. Grama},
 title = {Parallel Reactive Molecular Dynamics: {N}umerical Methods and Algorithmic Techniques},
 journal = {Parallel Computing},
 year =    2012,
 volume =  38,
 number =  {4--5},
 pages =   {245--259}
}

- fix qeq/reaxff command: doi:10.1016/j.parco.2011.08.005

@Article{Aktulga12,
 author = {H. M. Aktulga and J. C. Fogarty and S. A. Pandit and A. Y. Grama},
 title = {Parallel Reactive Molecular Dynamics: {N}umerical Methods and Algorithmic Techniques},
 journal = {Parallel Computing},
 year =    2012,
 volume =  38,
 pages =   {245--259}
}

CITE-CITE-CITE-CITE-CITE-CITE-CITE-CITE-CITE-CITE-CITE-CITE-CITE

Neighbor list info ...
  update: every = 1 steps, delay = 0 steps, check = yes
  max neighbors/atom: 2000, page size: 100000
  master list distance cutoff = 12
  ghost atom cutoff = 12
  binsize = 6, bins = 16 16 14
  2 neighbor lists, perpetual/occasional/extra = 2 0 0
  (1) pair reaxff, perpetual
      attributes: half, newton off, ghost
      pair build: half/bin/ghost/newtoff
      stencil: full/ghost/bin/3d
      bin: standard
  (2) fix qeq/reaxff, perpetual, copy from (1)
      attributes: half, newton off
      pair build: copy
      stencil: none
      bin: none
WARNING: Energy due to 3 extra global DOFs will be included in minimizer energies
 (src/min.cpp:219)
Per MPI rank memory allocation (min/avg/max) = 477.7 | 477.7 | 477.7 Mbytes
   Step          Temp          E_pair         E_mol          TotEng         Press          Volume    
         0   0             -1182617.7      0             -1182617.7      115541.11      733717.82    
        13   0             -1216351.4      0             -1216351.4     -451.9433       749408.82    
Loop time of 3.90274 on 48 procs for 13 steps with 6688 atoms

222.8% CPU use with 1 MPI tasks x 48 OpenMP threads

Minimization stats:
  Stopping criterion = energy tolerance
  Energy initial, next-to-last, final = 
     -1182617.71059244  -1216351.21576657  -1216351.37038478
  Force two-norm initial, final = 2630380.6 2920.2487
  Force max component initial, final = 1860015.6 2108.622
  Final line search alpha, max atom move = 1.2398753e-07 0.00026144283
  Iterations, force evaluations = 13 16

MPI task timing breakdown:
Section |  min time  |  avg time  |  max time  |%varavg| %total
---------------------------------------------------------------
Pair    | 3.7491     | 3.7491     | 3.7491     |   0.0 | 96.06
Neigh   | 0.019123   | 0.019123   | 0.019123   |   0.0 |  0.49
Comm    | 0.0004356  | 0.0004356  | 0.0004356  |   0.0 |  0.01
Output  | 0          | 0          | 0          |   0.0 |  0.00
Modify  | 0.12804    | 0.12804    | 0.12804    |   0.0 |  3.28
Other   |            | 0.006053   |            |       |  0.16

Nlocal:           6688 ave        6688 max        6688 min
Histogram: 1 0 0 0 0 0 0 0 0 0
Nghost:           3762 ave        3762 max        3762 min
Histogram: 1 0 0 0 0 0 0 0 0 0
Neighs:     1.2088e+06 ave  1.2088e+06 max  1.2088e+06 min
Histogram: 1 0 0 0 0 0 0 0 0 0

Total # of neighbors = 1208796
Ave neighs/atom = 180.74103
Neighbor list builds = 1
Dangerous builds = 0
unfix boxrelax

# Initial velocity assignment
velocity all create ${T} 4928459 mom yes rot yes dist gaussian
velocity all create 700 4928459 mom yes rot yes dist gaussian

# Z-wall constraint
fix wall all wall/reflect zlo EDGE zhi EDGE

# Define computes for temperature
compute tgraphene graphene temp

# --- Phase 1: NVT Equilibration of Pristine Graphene ---
fix nvt_eq all nvt temp ${T} ${T} 50
fix nvt_eq all nvt temp 700 ${T} 50
fix nvt_eq all nvt temp 700 700 50
thermo 50
run 10000
Per MPI rank memory allocation (min/avg/max) = 476.6 | 476.6 | 476.6 Mbytes
   Step          Temp          E_pair         E_mol          TotEng         Press     
        13   700           -1216351.4      0             -1202398.5      399.15106    
        50   404.80076     -1209271        0             -1201202.3      8617.1098    
       100   355.81533     -1206785.6      0             -1199693.3      8516.6883    
       150   420.1673      -1206327.2      0             -1197952.1      9386.2688    
       200   502.80239     -1206021.9      0             -1195999.7      9233.8144    
       250   528.8542      -1204417        0             -1193875.5      7831.2306    
       300   547.56973     -1202615.8      0             -1191701.2      6212.2965    
       350   600.16279     -1201517.8      0             -1189555        3361.4719    
       400   664.22543     -1200779.2      0             -1187539.4     -198.68869    
       450   713.15177     -1200251.6      0             -1186036.6     -1475.5629    
       500   731.50607     -1200119.9      0             -1185539        655.04445    
       550   716.73588     -1200679.9      0             -1186393.5      2514.2331    
       600   679.94304     -1201252        0             -1187698.9      2724.8684    
       650   658.26059     -1201278.7      0             -1188157.8      2064.1129    
       700   675.13087     -1200771.6      0             -1187314.5      1401.9326    
       750   711.1869      -1200238        0             -1186062.2      563.36419    
       800   735.10886     -1200300.2      0             -1185647.5      1060.8233    
       850   714.15415     -1200761.9      0             -1186526.9      1781.5678    
       900   686.49149     -1201288.2      0             -1187604.6      1736.002     
       950   678.24281     -1201644.9      0             -1188125.7      2026.2375    
      1000   676.92888     -1201145.7      0             -1187652.7      1431.4605    
      1050   708.95015     -1200600.2      0             -1186469        1152.5544    
      1100   731.66327     -1200355.5      0             -1185771.5      1051.5373    
      1150   714.40101     -1200498        0             -1186258        1347.2818    
      1200   690.95562     -1201046.4      0             -1187273.8      1634.5991    
      1250   675.62779     -1201390.3      0             -1187923.2      1641.7262    
      1300   686.4461      -1201442.7      0             -1187760        1822.4264    
      1350   685.44593     -1200616.4      0             -1186953.6      1539.9765    
      1400   713.94398     -1200322.1      0             -1186091.3      1591.6483    
      1450   726.58151     -1200467.3      0             -1185984.6      1972.9889    
      1500   701.27103     -1200728.1      0             -1186749.9      2163.829     
      1550   682.76376     -1201235.2      0             -1187625.9      2260.1294    
      1600   685.3632      -1201662.4      0             -1188001.2      1813.877     
      1650   688.67869     -1201448.2      0             -1187721        665.70751    
      1700   692.64915     -1200785.6      0             -1186979.2     -645.56839    
      1750   714.05168     -1200609.1      0             -1186376.2     -2000.8826    
      1800   713.70189     -1200647.2      0             -1186421.2     -1960.125     
      1850   706.21592     -1201164.9      0             -1187088.2     -448.30212    
      1900   691.49904     -1201628.8      0             -1187845.4      403.45791    
      1950   689.22538     -1201894.4      0             -1188156.3      1148.5691    
      2000   679.37564     -1201405        0             -1187863.2      335.48443    
      2050   694.57984     -1200982.9      0             -1187138       -461.29333    
      2100   718.94708     -1200778.5      0             -1186448       -736.24051    
      2150   713.15416     -1200634.2      0             -1186419.1     -347.88107    
      2200   697.33224     -1201086.6      0             -1187186.9      675.48221    
      2250   678.52357     -1201446.8      0             -1187922        928.396      
      2300   679.92537     -1201573.2      0             -1188020.5      623.72376    
      2350   695.91294     -1201360.6      0             -1187489.2      286.68245    
      2400   717.5165      -1201123.5      0             -1186821.5      205.40935    
      2450   713.89152     -1200892.1      0             -1186662.3     -189.96032    
      2500   702.75952     -1201065.4      0             -1187057.5     -24.671838    
      2550   691.18254     -1201447.1      0             -1187670       -425.93246    
      2600   678.0181      -1201426.8      0             -1187912.1     -977.13471    
      2650   689.02908     -1201317.8      0             -1187583.6     -1569.5429    
      2700   701.51944     -1200945.3      0             -1186962.1     -1365.8561    
      2750   719.61836     -1201000.1      0             -1186656.2     -812.35803    
      2800   704.78479     -1201081.2      0             -1187033       -737.86793    
      2850   690.02522     -1201368        0             -1187613.9     -139.7584     
      2900   683.20181     -1201492.7      0             -1187874.7     -457.69244    
      2950   699.4817      -1201475.9      0             -1187533.4     -483.06661    
      3000   710.78891     -1201131.6      0             -1186963.6     -420.8059     
      3050   707.7105      -1200796.9      0             -1186690.3      168.67819    
      3100   708.79709     -1201022.9      0             -1186894.7      470.48131    
      3150   694.25806     -1201145.5      0             -1187307.1      972.08348    
      3200   685.91745     -1201304.3      0             -1187632.1      1068.9772    
      3250   685.93634     -1201254.1      0             -1187581.5      902.7162     
      3300   699.73479     -1201073.1      0             -1187125.5      1225.1368    
      3350   708.23596     -1200901        0             -1186784        765.58511    
      3400   696.88982     -1200751.1      0             -1186860.2      42.994231    
      3450   703.82075     -1201206.3      0             -1187177.3     -212.21355    
      3500   690.99371     -1201258.4      0             -1187485       -652.88312    
      3550   692.00367     -1201250.6      0             -1187457.1     -599.44935    
      3600   708.41105     -1201176.4      0             -1187055.9     -250.39452    
      3650   711.20448     -1200941.1      0             -1186764.9     -167.7721     
      3700   706.54527     -1200874.5      0             -1186791.2      388.4011     
      3750   693.87684     -1200925.9      0             -1187095.1      1042.3761    
      3800   696.48557     -1201269        0             -1187386.1      1274.1216    
      3850   692.52531     -1201272.1      0             -1187468.2      1543.81      
      3900   693.54404     -1201066.7      0             -1187242.5      1479.7818    
      3950   702.60728     -1200886        0             -1186881.2      1112.5715    
      4000   711.12563     -1200817.7      0             -1186643        1108.9013    
      4050   712.80096     -1200900.7      0             -1186692.7      1209.3656    
      4100   699.96823     -1200977.5      0             -1187025.2      1028.1727    
      4150   687.72137     -1201010.7      0             -1187302.5      780.55059    
      4200   698.71057     -1201207.6      0             -1187280.4      1182.9315    
      4250   698.97032     -1201009.5      0             -1187077.2      1477.5779    
      4300   697.89332     -1200820.4      0             -1186909.5      1070.6434    
      4350   696.82491     -1200698.8      0             -1186809.2      1017.9753    
      4400   705.85407     -1200920.1      0             -1186850.5      1070.0446    
      4450   691.87154     -1200892.9      0             -1187102        844.87723    
      4500   688.91073     -1201050.2      0             -1187318.4      413.77915    
      4550   690.8563      -1201128.9      0             -1187358.3      426.43592    
      4600   701.33937     -1201160.1      0             -1187180.5      389.96037    
      4650   707.20027     -1200997        0             -1186900.6      375.23934    
      4700   709.81233     -1200930.4      0             -1186781.9      276.17427    
      4750   687.77802     -1200596.4      0             -1186887.1      30.420593    
      4800   689.40835     -1200820.1      0             -1187078.4      377.74961    
      4850   693.00788     -1200959.4      0             -1187145.9      717.90187    
      4900   701.03148     -1201089        0             -1187115.5      1642.3318    
      4950   696.53528     -1201054        0             -1187170.2      1743.0806    
      5000   694.62845     -1200988        0             -1187142.2      1567.7749    
      5050   700.54643     -1200774.2      0             -1186810.4      1338.0316    
      5100   705.88891     -1200753.5      0             -1186683.3      1323.9555    
      5150   696.44891     -1200719.3      0             -1186837.2      1279.2865    
      5200   700.29166     -1200953.1      0             -1186994.4      1479.4584    
      5250   706.68853     -1201120.1      0             -1187033.9      1874.8613    
      5300   709.63847     -1201185.4      0             -1187040.5      1542.572     
      5350   700.57207     -1200984.5      0             -1187020.2      1618.8603    
      5400   704.24364     -1200956        0             -1186918.6      1112.1359    
      5450   704.59364     -1200625.9      0             -1186581.5      954.3318     
      5500   710.17382     -1200631.3      0             -1186475.7      1001.6187    
      5550   706.50118     -1200806.4      0             -1186724        1045.4941    
      5600   709.71209     -1201035.6      0             -1186889.1      1382.3577    
      5650   686.93206     -1200760        0             -1187067.6      1310.5206    
      5700   687.42163     -1200847.6      0             -1187145.4      1106.5907    
      5750   709.69749     -1201133.8      0             -1186987.7      918.90961    
      5800   708.2728      -1200876.9      0             -1186759.1      832.42068    
      5850   704.91885     -1200747.5      0             -1186696.6      816.82366    
      5900   690.93735     -1200881.1      0             -1187108.8      959.45115    
      5950   692.53952     -1201031.7      0             -1187227.5      1204.1722    
      6000   692.92819     -1200888.5      0             -1187076.6      1445.501     
      6050   709.02967     -1200985.7      0             -1186852.8      1094.9554    
      6100   703.57656     -1200812.2      0             -1186788        1039.4283    
      6150   701.51713     -1200796.9      0             -1186813.8      993.5238     
      6200   702.54585     -1201142.5      0             -1187138.8      1233.388     
      6250   694.59972     -1201156.2      0             -1187311        1453.0723    
      6300   706.71591     -1201305.9      0             -1187219.2      1226.217     
      6350   704.87417     -1201008.7      0             -1186958.6      1094.5235    
      6400   711.50555     -1200950        0             -1186767.8      690.17606    
      6450   703.22198     -1200892.5      0             -1186875.4      493.42131    
      6500   698.39995     -1200947        0             -1187026        35.026246    
      6550   698.51586     -1200964        0             -1187040.7     -503.06354    
      6600   697.66807     -1200976.4      0             -1187070       -302.50826    
      6650   691.87484     -1200924.9      0             -1187133.9      269.55837    
      6700   697.2722      -1201298.7      0             -1187400.2      511.14091    
      6750   685.21546     -1201223.4      0             -1187565.3      51.713015    
      6800   688.53346     -1201110.8      0             -1187386.5     -531.70251    
      6850   702.39298     -1201168.9      0             -1187168.3     -557.54163    
      6900   699.40526     -1201031.9      0             -1187090.9     -473.76756    
      6950   704.36268     -1200980.2      0             -1186940.3      206.36151    
      7000   697.08642     -1200877.9      0             -1186983.1      554.05073    
      7050   691.6754      -1201126.3      0             -1187339.3      984.47626    
      7100   695.00124     -1201263.7      0             -1187410.5      912.07639    
      7150   692.88788     -1201070.3      0             -1187259.2      884.12682    
      7200   694.51046     -1200930.3      0             -1187086.9      439.98991    
      7250   708.6817      -1201155.9      0             -1187030        498.59455    
      7300   705.64651     -1201185.9      0             -1187120.5      542.42701    
      7350   713.43571     -1201359.1      0             -1187138.4      302.08619    
      7400   699.66329     -1201122.3      0             -1187176.2     -314.84864    
      7450   700.62574     -1201054.3      0             -1187089       -479.8334     
      7500   713.72225     -1200905.7      0             -1186679.3     -257.47514    
      7550   704.48592     -1200742.2      0             -1186699.9     -169.5177     
      7600   698.22767     -1200900.6      0             -1186983       -109.70579    
      7650   696.40232     -1201003.5      0             -1187122.3     -39.664817    
      7700   699.53669     -1201104.1      0             -1187160.4      315.14124    
      7750   700.73057     -1201117.9      0             -1187150.5      489.2595     
      7800   699.91741     -1200895.4      0             -1186944.1      762.23894    
      7850   705.27993     -1200734.5      0             -1186676.4      1616.9706    
      7900   706.79305     -1200879        0             -1186790.7      2194.536     
      7950   700.47019     -1201056.6      0             -1187094.3      2122.7039    
      8000   701.87431     -1201117.9      0             -1187127.7      1666.0548    
      8050   698.6993      -1200906.8      0             -1186979.8      821.96109    
      8100   699.69595     -1200650.1      0             -1186703.3      760.95064    
      8150   707.92969     -1200771.6      0             -1186660.6      1087.9085    
      8200   701.66217     -1200847.8      0             -1186861.8      1210.0683    
      8250   696.13259     -1200817.5      0             -1186941.8      1053.678     
      8300   696.52268     -1200943.9      0             -1187060.3      856.9832     
      8350   693.90859     -1201082.8      0             -1187251.3      637.36629    
      8400   684.51706     -1200937.6      0             -1187293.4      605.02554    
      8450   697.80629     -1200827.5      0             -1186918.4      720.68873    
      8500   711.14624     -1200907.2      0             -1186732.1      678.30556    
      8550   702.00947     -1200912        0             -1186919        531.808      
      8600   693.21106     -1200880        0             -1187062.5      137.20642    
      8650   704.60099     -1201115.2      0             -1187070.6      260.70381    
      8700   699.67565     -1200996.9      0             -1187050.4      149.50134    
      8750   701.15927     -1200751.6      0             -1186775.6      502.84281    
      8800   714.51826     -1200876.9      0             -1186634.7      1260.2943    
      8850   696.83225     -1200756.7      0             -1186867        1769.3436    
      8900   697.57849     -1200950.6      0             -1187046        2057.0536    
      8950   697.77135     -1200972        0             -1187063.5      1746.5162    
      9000   702.85691     -1200928.4      0             -1186918.6      1661.9589    
      9050   711.41798     -1200709.9      0             -1186529.4      1587.8139    
      9100   713.71399     -1200649        0             -1186422.8      1681.5217    
      9150   704.72266     -1200718.6      0             -1186671.6      1876.7281    
      9200   692.19043     -1200706.9      0             -1186909.7      1858.981     
      9250   704.97144     -1201055.6      0             -1187003.7      1451.7144    
      9300   699.14317     -1200988.4      0             -1187052.6      1579.4703    
      9350   690.95268     -1201003.1      0             -1187230.6      1350.5937    
      9400   697.86172     -1201337.4      0             -1187427.1      832.34784    
      9450   699.52229     -1201163.4      0             -1187220.1      454.13272    
      9500   700.76403     -1200870.8      0             -1186902.7     -109.61184    
      9550   700.3087      -1200765.2      0             -1186806.1     -116.66561    
      9600   703.74948     -1200883.5      0             -1186855.9      74.492155    
      9650   694.83211     -1201032.7      0             -1187182.8      256.92274    
      9700   699.69127     -1201200.8      0             -1187254.1      718.5668     
      9750   700.54521     -1201087.9      0             -1187124.1      598.61851    
      9800   700.42511     -1200866.7      0             -1186905.4      992.35028    
      9850   695.26125     -1200720.9      0             -1186862.4      1613.359     
      9900   699.39165     -1200839.3      0             -1186898.5      2370.4754    
      9950   697.20609     -1200896.6      0             -1186999.4      2299.8321    
     10000   696.25256     -1200883.6      0             -1187005.4      2017.3723    
     10013   699.9578      -1200952.7      0             -1187000.6      1903.5685    
Loop time of 2503.64 on 48 procs for 10000 steps with 6688 atoms

Performance: 0.345 ns/day, 69.546 hours/ns, 3.994 timesteps/s, 26.713 katom-step/s
101.1% CPU use with 1 MPI tasks x 48 OpenMP threads

MPI task timing breakdown:
Section |  min time  |  avg time  |  max time  |%varavg| %total
---------------------------------------------------------------
Pair    | 2182       | 2182       | 2182       |   0.0 | 87.15
Neigh   | 3.4759     | 3.4759     | 3.4759     |   0.0 |  0.14
Comm    | 0.23025    | 0.23025    | 0.23025    |   0.0 |  0.01
Output  | 0.011553   | 0.011553   | 0.011553   |   0.0 |  0.00
Modify  | 317.31     | 317.31     | 317.31     |   0.0 | 12.67
Other   |            | 0.6266     |            |       |  0.03

Nlocal:           6688 ave        6688 max        6688 min
Histogram: 1 0 0 0 0 0 0 0 0 0
Nghost:           3834 ave        3834 max        3834 min
Histogram: 1 0 0 0 0 0 0 0 0 0
Neighs:    1.19443e+06 ave 1.19443e+06 max 1.19443e+06 min
Histogram: 1 0 0 0 0 0 0 0 0 0

Total # of neighbors = 1194434
Ave neighs/atom = 178.5936
Neighbor list builds = 153
Dangerous builds = 0
unfix nvt_eq

# --- Phase 2: Insert Fluorine ---

# Define group for fluorine (type 2)
group gas type 2
0 atoms in group gas

# Define insertion regions
region above_graphene block 3 93 3 93 15 25 units box
region below_graphene block 3 93 3 93 -25 -15 units box

# Insert F atoms (type 2)
create_atoms 2 random 200 12345 above_graphene overlap 1.5
Created 200 atoms
  using lattice units in orthogonal box = (-0.34616894 -0.36769265 -42) to (93.976369 94.217693 42)
  create_atoms CPU = 0.010 seconds
create_atoms 2 random 200 34134 below_graphene overlap 1.5
Created 200 atoms
  using lattice units in orthogonal box = (-0.34616894 -0.36769265 -42) to (93.976369 94.217693 42)
  create_atoms CPU = 0.010 seconds

# Output
dump mydmp all custom 500 dump.lammpstrj id type x y z q
thermo 50

# --- Phase 3: Production run with fluorine ---
fix nvt_main all nvt temp ${T} ${T} 50
fix nvt_main all nvt temp 700 ${T} 50
fix nvt_main all nvt temp 700 700 50
fix reax_bonds all reaxff/bonds 50 bonds.reax

timestep 0.5
run 50000
Per MPI rank memory allocation (min/avg/max) = 481.1 | 481.1 | 481.1 Mbytes
   Step          Temp          E_pair         E_mol          TotEng         Press     
     10013   660.45122     -1200899.7      0             -1186947.7      1898.2651    
     10050   681.97532     -1202191.5      0             -1187784.7      1983.1831    
     10100   685.11656     -1202023.5      0             -1187550.4      1730.5495    
     10150   692.99321     -1202028        0             -1187388.5      1664.0712    
     10200   697.00844     -1201964.1      0             -1187239.8      1804.6072    
     10250   700.57175     -1201904.7      0             -1187105.1      1806.9302    
     10300   699.1193      -1201773.3      0             -1187004.4      1437.794     
     10350   698.49464     -1201679.3      0             -1186923.6      1482.8823    
     10400   702.58197     -1201713.2      0             -1186871.1      1249.326     
     10450   708.58949     -1201851.3      0             -1186882.4      1072.7886    
     10500   702.17807     -1201797.5      0             -1186964        1153.9295    
     10550   698.3865      -1201878.1      0             -1187124.7      1153.5197    
     10600   694.85612     -1201966.8      0             -1187288        1005.5954    
     10650   692.81184     -1201998        0             -1187362.3      834.28525    
     10700   687.03651     -1201869.8      0             -1187356.1      871.72351    
     10750   693.75929     -1201967.4      0             -1187311.7      842.89612    
     10800   692.76196     -1201901.3      0             -1187266.7      802.14429    
     10850   701.67234     -1202019.8      0             -1187197        928.71207    
     10900   689.37802     -1201711        0             -1187147.9      735.96622    
     10950   707.10093     -1201958.2      0             -1187020.7      891.72813    
     11000   704.18436     -1201659.6      0             -1186783.7      1014.3901    
     11050   707.78758     -1201541.2      0             -1186589.2      783.2544     
     11100   710.43587     -1201582.9      0             -1186574.9      703.8554     
     11150   715.96554     -1201805.1      0             -1186680.3      1000.1345    
     11200   706.97027     -1201802.5      0             -1186867.8      839.65084    
     11250   694.47918     -1201683.4      0             -1187012.5      662.19747    
     11300   698.788       -1201883.2      0             -1187121.3      731.65013    
     11350   696.40843     -1201959.4      0             -1187247.8      578.40333    
     11400   698.54448     -1202103.8      0             -1187347.1      444.92861    
     11450   692.03486     -1202008.3      0             -1187389.1      844.89006    
     11500   709.48301     -1202408.7      0             -1187420.8      915.56592    
     11550   694.66245     -1202134.7      0             -1187460        758.53147    
     11600   707.13711     -1202438.1      0             -1187499.8      644.26129    
     11650   683.83827     -1201983.6      0             -1187537.5      261.83614    
     11700   690.76699     -1202088.2      0             -1187495.8      24.595092    
     11750   696.78784     -1202074.8      0             -1187355.1      366.29214    
     11800   712.54102     -1202252.9      0             -1187200.5      429.93023    
     11850   703.88226     -1201987.6      0             -1187118.1      381.58386    
     11900   712.60877     -1202150        0             -1187096.1      473.59581    
     11950   710.10915     -1202154.7      0             -1187153.7      615.3165     
     12000   700.64774     -1202118.3      0             -1187317.1      526.88562    
     12050   700.1498      -1202274.7      0             -1187484        611.60903    
     12100   688.71376     -1202140.8      0             -1187591.7      632.40365    
     12150   702.15386     -1202457.5      0             -1187624.5      611.08791    
     12200   685.60783     -1202107.8      0             -1187624.3      545.65018    
     12250   706.8954      -1202502.9      0             -1187569.7      542.29085    
     12300   698.78613     -1202242.5      0             -1187480.7      596.99112    
     12350   709.33086     -1202358.2      0             -1187373.6      488.43608    
     12400   707.55672     -1202231.8      0             -1187284.7      576.30234    
     12450   706.9229      -1202206.6      0             -1187272.8      413.80451    
     12500   700.92943     -1202117.1      0             -1187310        400.91354    
     12550   697.40431     -1202145.5      0             -1187412.9      491.84028    
     12600   695.80426     -1202344.9      0             -1187646.1      534.56742    
     12650   694.7415      -1202566        0             -1187889.6      566.8811     
     12700   696.43297     -1202629.3      0             -1187917.1      893.63277    
     12750   695.036       -1202554.7      0             -1187872.1      1082.8421    
     12800   694.6017      -1202441.1      0             -1187767.7      959.33535    
     12850   701.80877     -1202452.8      0             -1187627.1      1281.2621    
     12900   703.73859     -1202371.8      0             -1187505.3      1334.0803    
     12950   697.45304     -1202176.9      0             -1187443.2      1050.8143    
     13000   707.99274     -1202391.5      0             -1187435.1      1125.9347    
     13050   710.38651     -1202491        0             -1187484.1      886.37099    
     13100   698.70937     -1202357.1      0             -1187596.9      734.00397    
     13150   699.2456      -1202521.5      0             -1187749.9      592.7378     
     13200   684.07374     -1202383.3      0             -1187932.3      571.14411    
     13250   698.48647     -1202774.3      0             -1188018.8      601.82123    
     13300   702.29097     -1202836.1      0             -1188000.2      471.78689    
     13350   692.80532     -1202597.2      0             -1187961.7      277.2898     
     13400   697.30483     -1202641.5      0             -1187910.9      59.85612     
     13450   704.51208     -1202747.6      0             -1187864.7     -135.71411    
     13500   691.95837     -1202450        0             -1187832.4     -173.07453    
     13550   706.04479     -1202683.3      0             -1187768.1     -315.39272    
     13600   702.8142      -1202553.9      0             -1187707       -354.1623     
     13650   711.34734     -1202686.3      0             -1187659.1     -556.86673    
     13700   710.37559     -1202691.3      0             -1187684.6     -920.2583     
     13750   702.96642     -1202698        0             -1187847.9     -1261.5491    
     13800   691.95443     -1202683.2      0             -1188065.7     -1176.0481    
     13850   695.51597     -1202869        0             -1188176.2     -1178         
     13900   692.20339     -1202826        0             -1188203.2     -1043.5441    
     13950   705.54491     -1203054.7      0             -1188150.1     -856.52189    
     14000   701.90792     -1202896.1      0             -1188068.3     -419.96685    
     14050   702.71635     -1202818.5      0             -1187973.6     -358.69828    
     14100   705.80316     -1202798.5      0             -1187888.4     -270.24136    
     14150   710.48415     -1202826.6      0             -1187817.6     -63.638359    
     14200   705.43496     -1202715.7      0             -1187813.4      63.54743     
     14250   701.55032     -1202752.2      0             -1187932        287.25113    
     14300   695.65864     -1202865.3      0             -1188169.5      38.199637    
     14350   702.1374      -1203137.9      0             -1188305.2      469.93052    
     14400   695.445       -1203073.1      0             -1188381.8      776.91692    
     14450   686.77926     -1202869.8      0             -1188361.6      1065.9405    
     14500   697.29528     -1202981        0             -1188250.7      1353.2627    
     14550   695.33811     -1202801.6      0             -1188112.6      1521.1293    
     14600   699.20605     -1202773.3      0             -1188002.6      1922.3417    
     14650   714.55049     -1203053.7      0             -1187958.9      2157.9342    
     14700   703.40276     -1202858.3      0             -1187998.9      2255.0779    
     14750   705.17267     -1202973        0             -1188076.2      2422.3719    
     14800   701.22002     -1202988.1      0             -1188174.8      2584.5634    
     14850   709.27975     -1203249.3      0             -1188265.8      2353.9373    
     14900   699.34848     -1203077.9      0             -1188304.2      2203.4345    
     14950   705.09505     -1203180.9      0             -1188285.7      2181.0246    
     15000   695.31674     -1202941.7      0             -1188253.1      2149.5152    
     15050   692.21143     -1202832.9      0             -1188210        1857.8667    
     15100   699.55288     -1202929.1      0             -1188151.1      1783.282     
     15150   697.31896     -1202843        0             -1188112.1      2001.8068    
     15200   701.33503     -1202888.3      0             -1188072.6      2005.1688    
     15250   713.56209     -1203120.6      0             -1188046.6      2193.6241    
     15300   698.50282     -1202814.8      0             -1188058.9      1821.4052    
     15350   697.73055     -1202875.3      0             -1188135.7      1462.5107    
     15400   684.65906     -1202737.4      0             -1188274        1528.1594    
     15450   697.70364     -1203109.7      0             -1188370.7      1338.4995    
     15500   697.07742     -1203159.3      0             -1188433.6      1629.1731    
     15550   700.01748     -1203274.7      0             -1188486.8      1427.8695    
     15600   692.82008     -1203154        0             -1188518.2      1698.4433    
     15650   703.14573     -1203365.7      0             -1188511.7      1257.4917    
     15700   702.05886     -1203322.6      0             -1188491.6      1195.5871    
     15750   701.37497     -1203222.6      0             -1188406        1233.6862    
     15800   710.79898     -1203324        0             -1188308.4      1016.7636    
     15850   714.18214     -1203339.2      0             -1188252.1      933.45214    
     15900   711.51479     -1203316.4      0             -1188285.6      616.34496    
     15950   712.18286     -1203450.4      0             -1188405.6      887.55516    
     16000   701.80173     -1203428.5      0             -1188603        440.47189    
     16050   706.22723     -1203633.8      0             -1188714.7      543.1008     
     16100   699.06305     -1203519.1      0             -1188751.4      1069.9039    
     16150   701.62563     -1203580.4      0             -1188758.6      996.37662    
     16200   703.11963     -1203594.5      0             -1188741.1      1017.711     
     16250   693.61625     -1203360.8      0             -1188708.2      1334.4166    
     16300   711.33368     -1203645.5      0             -1188618.6      1446.1306    
     16350   708.00653     -1203442.1      0             -1188485.5      1552.2162    
     16400   720.19962     -1203491.4      0             -1188277.1      1471.6448    
     16450   715.35572     -1203273.6      0             -1188161.7      1836.4715    
     16500   713.98327     -1203288.8      0             -1188205.9      1270.049     
     16550   706.94948     -1203399.5      0             -1188465.2      1291.7114    
     16600   710.55381     -1203659.2      0             -1188648.8      1462.0927    
     16650   699.00497     -1203496.4      0             -1188729.9      1490.8266    
     16700   699.17251     -1203562.6      0             -1188792.6      1701.3313    
     16750   698.31163     -1203629.1      0             -1188877.3      1612.6527    
     16800   691.14666     -1203552.7      0             -1188952.2      1168.2432    
     16850   689.63286     -1203537.6      0             -1188969.1      949.53373    
     16900   702.13301     -1203753.8      0             -1188921.3      858.0585     
     16950   702.01509     -1203654        0             -1188823.9      718.14172    
     17000   710.58635     -1203707.6      0             -1188696.4      761.12385    
     17050   707.05971     -1203530.9      0             -1188594.2      882.43537    
     17100   716.66569     -1203675.2      0             -1188535.6      1000.661     
     17150   708.73023     -1203560.3      0             -1188588.4      801.14882    
     17200   706.7601      -1203721.3      0             -1188791        910.84155    
     17250   697.03678     -1203750.5      0             -1189025.6      977.94408    
     17300   705.45879     -1204014.2      0             -1189111.3      1115.6423    
     17350   696.34825     -1203856.2      0             -1189145.9      1235.0329    
     17400   699.47046     -1203908.8      0             -1189132.5      1282.4058    
     17450   697.62642     -1203826        0             -1189088.6      1246.4377    
     17500   706.8669      -1203923.1      0             -1188990.5      1030.8679    
     17550   699.69638     -1203655        0             -1188874        1029.7269    
     17600   701.22344     -1203564.1      0             -1188750.8      947.13281    
     17650   715.92009     -1203789.4      0             -1188665.6      1095.3278    
     17700   712.49152     -1203714.3      0             -1188662.9      786.11854    
     17750   708.03639     -1203765.6      0             -1188808.3      544.70678    
     17800   696.44508     -1203790.9      0             -1189078.5      881.45316    
     17850   692.73399     -1203865.6      0             -1189231.6      892.08616    
     17900   696.01352     -1203982.4      0             -1189279.1      941.30723    
     17950   690.81668     -1203911.2      0             -1189317.7      978.1379     
     18000   697.23637     -1204054.2      0             -1189325.1      1161.0548    
     18050   689.04137     -1203870.3      0             -1189314.3      969.98857    
     18100   694.53874     -1203893.4      0             -1189221.2      1263.0605    
     18150   705.83709     -1203987.3      0             -1189076.5      1197.088     
     18200   703.10411     -1203790.1      0             -1188937        818.02804    
     18250   706.85835     -1203781        0             -1188848.6      1050.3047    
     18300   714.69705     -1203931.3      0             -1188833.3      1225.1458    
     18350   704.14297     -1203777        0             -1188902        1544.2455    
     18400   704.41095     -1203971.3      0             -1189090.6      1494.2276    
     18450   696.72725     -1204017.4      0             -1189299.1      1578.5424    
     18500   692.55619     -1203990.7      0             -1189360.4      1532.4947    
     18550   693.71319     -1204016.1      0             -1189361.4      1485.7672    
     18600   701.70451     -1204166.3      0             -1189342.8      1444.3818    
     18650   697.21737     -1204086.1      0             -1189357.4      1616.0952    
     18700   690.22338     -1203948.1      0             -1189367.1      1282.4085    
     18750   702.83199     -1204178.6      0             -1189331.2      1438.6229    
     18800   699.48103     -1204065.8      0             -1189289.3      1068.7068    
     18850   701.04396     -1204025.8      0             -1189216.2      1142.8069    
     18900   704.33976     -1203975.1      0             -1189095.9      1750.4067    
     18950   702.28232     -1203849.4      0             -1189013.7      1951.1853    
     19000   712.7534      -1204072.5      0             -1189015.6      1965.7611    
     19050   705.75927     -1204048        0             -1189138.8      1973.8952    
     19100   700.1262      -1204171        0             -1189380.9      2096.9073    
     19150   699.98022     -1204320.4      0             -1189533.3      1901.247     
     19200   686.23513     -1204095.1      0             -1189598.4      1423.3665    
     19250   711.4387      -1204621.4      0             -1189592.2      1468.6003    
     19300   702.31512     -1204415.9      0             -1189579.5      1106.4145    
     19350   699.80763     -1204340.1      0             -1189556.7      1107.0782    
     19400   702.54546     -1204345.6      0             -1189504.3      1050.6523    
     19450   705.06235     -1204354        0             -1189459.6      837.5337     
     19500   712.07548     -1204537.5      0             -1189494.9      859.1468     
     19550   701.9602      -1204502.7      0             -1189673.8      813.18861    
     19600   707.4835      -1204811.4      0             -1189865.8      733.77525    
     19650   701.01925     -1204806.9      0             -1189997.8      928.53234    
     19700   688.9621      -1204623.3      0             -1190069        356.0539     
     19750   687.53971     -1204591.9      0             -1190067.6      212.8661     
     19800   698.28344     -1204753        0             -1190001.7     -87.655608    
     19850   703.63017     -1204756.2      0             -1189892       -167.01163    
     19900   708.46982     -1204732.4      0             -1189766       -544.8666     
     19950   701.26181     -1204446.5      0             -1189632.3     -521.18192    
     20000   717.76137     -1204713.3      0             -1189550.6     -503.59349    
     20050   711.83276     -1204581.8      0             -1189544.3      33.93872     
     20100   711.17661     -1204643.3      0             -1189619.7      174.46261    
     20150   705.56773     -1204591        0             -1189685.9      67.543176    
     20200   697.7353      -1204526.8      0             -1189787.2     -214.69776    
     20250   703.00606     -1204765.9      0             -1189914.9     -317.60729    
     20300   699.0096      -1204804.5      0             -1190037.9     -201.59175    
     20350   702.12167     -1204967.4      0             -1190135.1     -220.31106    
     20400   696.18794     -1204896.8      0             -1190189.8     -99.480372    
     20450   699.8548      -1205002.7      0             -1190218.3     -289.38832    
     20500   694.55653     -1204884.8      0             -1190212.3     -337.96204    
     20550   697.76911     -1204943.4      0             -1190203       -94.938044    
     20600   703.23815     -1205041.5      0             -1190185.6     -156.4431     
     20650   704.50663     -1205073.5      0             -1190190.8     -2.4636756    
     20700   698.01698     -1204980.2      0             -1190234.5      109.08276    
     20750   702.3919      -1205167.3      0             -1190329.2      96.00781     
     20800   697.11897     -1205179.3      0             -1190452.7      118.45736    
     20850   710.41568     -1205566.3      0             -1190558.8      16.835231    
     20900   696.27048     -1205382.1      0             -1190673.4     -56.544395    
     20950   706.61014     -1205670.7      0             -1190743.6     -153.4334     
     21000   696.36651     -1205491.3      0             -1190780.6     -297.17546    
     21050   694.03985     -1205420.4      0             -1190758.8     -257.04097    
     21100   699.66399     -1205422.4      0             -1190642       -358.12488    
     21150   702.7726      -1205264.4      0             -1190418.3     -217.84078    
     21200   720.62752     -1205482.3      0             -1190259        258.04197    
     21250   710.51779     -1205247.5      0             -1190237.8      88.396602    
     21300   708.55921     -1205301.6      0             -1190333.3      522.9699     
     21350   721.29883     -1205735.4      0             -1190497.9      829.40965    
     21400   704.09974     -1205546.8      0             -1190672.7      1025.5363    
     21450   705.90337     -1205689        0             -1190776.8      664.68604    
     21500   696.80477     -1205572.5      0             -1190852.5      878.56836    
     21550   708.45989     -1205881.1      0             -1190914.9      846.59461    
     21600   698.53066     -1205715.3      0             -1190958.8      821.89949    
     21650   699.94635     -1205798.7      0             -1191012.4      705.76109    
     21700   698.78805     -1205810.5      0             -1191048.6      521.44082    
     21750   693.97301     -1205715.3      0             -1191055.1      748.43583    
     21800   711.77215     -1206043.8      0             -1191007.6      875.4266     
     21850   701.78735     -1205766.9      0             -1190941.6      648.26133    
     21900   710.47115     -1205860.7      0             -1190852        863.75114    
     21950   705.2026      -1205685.8      0             -1190788.4      895.73183    
     22000   706.87034     -1205733.7      0             -1190801.1      681.19832    
     22050   693.51674     -1205568.6      0             -1190918.1      838.85333    
     22100   705.54045     -1205987        0             -1191082.4      1320.7978    
     22150   696.74105     -1205943.1      0             -1191224.4      1497.0227    
     22200   700.10236     -1206088.1      0             -1191298.5      1553.1904    
     22250   701.16453     -1206141.9      0             -1191329.8      1514.2087    
     22300   694.66636     -1206033.3      0             -1191358.5      1484.7992    
     22350   700.56962     -1206161.8      0             -1191362.2      1352.6421    
     22400   698.26541     -1206133.3      0             -1191382.4      914.37783    
     22450   697.89976     -1206146        0             -1191402.8      1014.309     
     22500   695.60518     -1206087.1      0             -1191392.4      906.60319    
     22550   703.99393     -1206217        0             -1191345.1      862.58867    
     22600   699.07613     -1206063.8      0             -1191295.8      882.09126    
     22650   708.13015     -1206224.3      0             -1191265.1      1109.2383    
     22700   702.0343      -1206097.9      0             -1191267.4      1190.5158    
     22750   706.76081     -1206246.6      0             -1191316.2      1305.3229    
     22800   707.43116     -1206361.3      0             -1191416.8      1504.5386    
     22850   700.79126     -1206318.8      0             -1191514.6      1535.2627    
     22900   701.32627     -1206405.9      0             -1191590.4      1244.4663    
     22950   699.45774     -1206424.1      0             -1191648.1      1562.8891    
     23000   701.09583     -1206529.7      0             -1191719.1      1372.5264    
     23050   687.99735     -1206347.3      0             -1191813.4      1101.16      
     23100   684.58829     -1206350.5      0             -1191888.6      790.87333    
     23150   694.72188     -1206515.6      0             -1191839.6      963.68929    
     23200   696.85372     -1206372.5      0             -1191651.5      802.53007    
     23250   701.23498     -1206272        0             -1191458.4      819.80794    
     23300   704.03515     -1206233.9      0             -1191361.2      740.34547    
     23350   696.95285     -1206054.5      0             -1191331.4      1092.2416    
     23400   704.13315     -1206220.4      0             -1191345.5      990.63997    
     23450   706.64775     -1206338.6      0             -1191410.7      1396.8885    
     23500   696.23042     -1206245.6      0             -1191537.7      1506.4893    
     23550   694.20531     -1206366.5      0             -1191701.4      1619.7286    
     23600   698.54035     -1206592.8      0             -1191836.2      1794.9181    
     23650   703.33207     -1206758.9      0             -1191901        1406.7157    
     23700   700.11022     -1206723.2      0             -1191933.3      1398.0431    
     23750   700.14663     -1206743.8      0             -1191953.2      1249.0448    
     23800   696.54055     -1206670.9      0             -1191956.5      759.70963    
     23850   703.05882     -1206827.5      0             -1191975.4      420.04023    
     23900   704.10874     -1206897.7      0             -1192023.4      356.74957    
     23950   695.57834     -1206822.8      0             -1192128.7      296.97263    
     24000   701.04565     -1207144.6      0             -1192335        198.32445    
     24050   692.70137     -1207141.8      0             -1192508.5     -75.561966    
     24100   692.34375     -1207182.6      0             -1192556.9     -180.42191    
     24150   700.2538      -1207355.2      0             -1192562.4      298.09978    
     24200   694.42278     -1207218.4      0             -1192548.8      319.57211    
     24250   700.89588     -1207364.9      0             -1192558.5      318.16305    
     24300   703.52531     -1207432        0             -1192570        397.55774    
     24350   700.04675     -1207378.4      0             -1192589.9      356.88566    
     24400   701.39876     -1207457.4      0             -1192640.4      432.2514     
     24450   691.41104     -1207358.5      0             -1192752.4     -118.74767    
     24500   699.5346      -1207614.4      0             -1192836.8      299.61835    
     24550   705.38103     -1207774.9      0             -1192873.7      514.80174    
     24600   694.19502     -1207512.5      0             -1192847.6      386.3425     
     24650   702.44701     -1207590.6      0             -1192751.4      611.84457    
     24700   705.15067     -1207513.1      0             -1192616.8      369.55117    
     24750   703.91748     -1207364        0             -1192493.7      1041.5955    
     24800   701.96924     -1207276.5      0             -1192447.4      966.23745    
     24850   713.81242     -1207542.7      0             -1192463.4      837.526      
     24900   699.15814     -1207346.8      0             -1192577.1      667.80235    
     24950   687.79692     -1207333.4      0             -1192803.7      818.5621     
     25000   687.14439     -1207462.6      0             -1192946.6      419.07529    
     25050   684.80274     -1207424.7      0             -1192958.2      375.39382    
     25100   697.17431     -1207623        0             -1192895.2      711.77026    
     25150   710.17557     -1207812.2      0             -1192809.7      648.99079    
     25200   695.51385     -1207432.3      0             -1192739.6      609.95911    
     25250   707.51081     -1207643.9      0             -1192697.8      589.55607    
     25300   701.55362     -1207503        0             -1192682.7      456.67043    
     25350   708.34141     -1207643.1      0             -1192679.4      747.16229    
     25400   698.05567     -1207476.4      0             -1192730        599.65411    
     25450   697.3569      -1207613.8      0             -1192882.1      421.37447    
     25500   698.56387     -1207836.5      0             -1193079.3      439.37931    
     25550   701.17749     -1207984.8      0             -1193172.5      545.8136     
     25600   695.65417     -1207909.7      0             -1193214        966.88205    
     25650   688.52146     -1207723.9      0             -1193178.9      766.6193     
     25700   704.87422     -1207964.8      0             -1193074.4      1298.1894    
     25750   701.73278     -1207755.1      0             -1192931        1035.3445    
     25800   709.20222     -1207810.8      0             -1192828.9      1573.389     
     25850   701.8861      -1207661.6      0             -1192834.2      1286.2924    
     25900   708.8641      -1207886.7      0             -1192912        1407.3965    
     25950   701.96893     -1207819.9      0             -1192990.8      1053.791     
     26000   710.48747     -1208044.8      0             -1193035.8      1244.6261    
     26050   700.49591     -1207889.4      0             -1193091.4      1024.8735    
     26100   701.69894     -1208001.1      0             -1193177.7      1202.8898    
     26150   707.67271     -1208241.2      0             -1193291.6      1346.3485    
     26200   693.37925     -1208068.2      0             -1193420.6      1471.3613    
     26250   698.69296     -1208277.3      0             -1193517.4      1450.2087    
     26300   687.667       -1208113.5      0             -1193586.6      1558.9367    
     26350   689.74453     -1208160.9      0             -1193590.1      1424.2024    
     26400   699.63293     -1208350.9      0             -1193571.2      1107.1798    
     26450   695.30207     -1208191.7      0             -1193503.4      1059.4931    
     26500   706.0449      -1208205.9      0             -1193290.7      1020.0576    
     26550   698.68827     -1207800.4      0             -1193040.6      730.67394    
     26600   714.71645     -1208088.3      0             -1192989.9      352.76087    
     26650   713.8059      -1208129.4      0             -1193050.2      570.80416    
     26700   711.05325     -1208203        0             -1193182        715.26994    
     26750   706.86212     -1208269.1      0             -1193336.6      1411.1663    
     26800   706.79066     -1208388.8      0             -1193457.8      968.29025    
     26850   699.77964     -1208325.6      0             -1193542.8      1232.7667    
     26900   706.02914     -1208506.6      0             -1193591.7      1273.0204    
     26950   688.79729     -1208175.9      0             -1193625.1      1044.5916    
     27000   701.88168     -1208473.2      0             -1193646        1406.66      
     27050   697.2708      -1208395.2      0             -1193665.3      1395.3335    
     27100   700.44257     -1208470.7      0             -1193673.8      1096.1616    
     27150   697.40877     -1208390.8      0             -1193658        1857.7539    
     27200   708.06152     -1208584.9      0             -1193627.1      1482.4868    
     27250   698.01228     -1208333.4      0             -1193587.9      1617.7206    
     27300   710.98502     -1208591        0             -1193571.4      1469.0453    
     27350   708.29842     -1208539.9      0             -1193577.1      1617.9303    
     27400   705.67003     -1208510.8      0             -1193603.5      1613.4005    
     27450   698.62879     -1208422.5      0             -1193664        1805.2137    
     27500   699.5866      -1208520.8      0             -1193742        1496.5068    
     27550   691.67078     -1208434        0             -1193822.5      1366.6621    
     27600   699.41167     -1208678.4      0             -1193903.3      1462.8737    
     27650   693.34174     -1208654.9      0             -1194008.1      1107.357     
     27700   690.323       -1208715.2      0             -1194132.1      1088.1243    
     27750   692.69258     -1208842.3      0             -1194209.2      1595.2939    
     27800   694.39208     -1208895.1      0             -1194226.1      1398.2348    
     27850   697.99695     -1208907.8      0             -1194162.6      1808.5678    
     27900   694.00291     -1208646.2      0             -1193985.4      1090.6321    
     27950   701.63289     -1208601.3      0             -1193779.3      1108.8436    
     28000   697.57836     -1208442.9      0             -1193706.6      1236.8741    
     28050   694.90179     -1208408.8      0             -1193729        912.82946    
     28100   705.36012     -1208681        0             -1193780.3      1266.2136    
     28150   702.68706     -1208740.3      0             -1193896        1122.3027    
     28200   700.55418     -1208829.8      0             -1194030.6      689.47896    
     28250   693.56935     -1208772.5      0             -1194120.8      1218.3825    
     28300   701.10963     -1208979.2      0             -1194168.3      963.62798    
     28350   698.15905     -1208920        0             -1194171.4      1377.7216    
     28400   698.03511     -1208889.8      0             -1194143.8      1418.4627    
     28450   696.94407     -1208732.6      0             -1194009.6      1180.9551    
     28500   700.75756     -1208582.5      0             -1193779        978.39102    
     28550   716.74281     -1208792.4      0             -1193651.2      1369.5419    
     28600   708.60991     -1208638.9      0             -1193669.5      1046.372     
     28650   706.95676     -1208713.8      0             -1193779.3      1248.4182    
     28700   709.17948     -1208958.6      0             -1193977.2      1154.524     
     28750   705.8727      -1209032.9      0             -1194121.3      1024.9987    
     28800   700.70158     -1209026.7      0             -1194224.4      989.5616     
     28850   703.37497     -1209152.1      0             -1194293.3      751.63758    
     28900   703.14595     -1209219.3      0             -1194365.4      587.9364     
     28950   701.68326     -1209288.8      0             -1194465.7      926.79612    
     29000   703.77398     -1209438.7      0             -1194571.5      758.07326    
     29050   692.46286     -1209263.9      0             -1194635.7      716.41791    
     29100   701.80658     -1209488.8      0             -1194663.1      893.8487     
     29150   705.33733     -1209551.9      0             -1194651.7      1223.0593    
     29200   707.66219     -1209530.2      0             -1194580.8      1157.5594    
     29250   695.7423      -1209172.2      0             -1194474.7      820.90304    
     29300   708.68185     -1209346.4      0             -1194375.5      608.89042    
     29350   710.87328     -1209326.3      0             -1194309.1      1037.3945    
     29400   708.36003     -1209328.3      0             -1194364.2      887.11553    
     29450   701.59456     -1209324.9      0             -1194503.7      874.00047    
     29500   701.33885     -1209481.7      0             -1194666        1198.2437    
     29550   694.79901     -1209444.6      0             -1194766.9      962.98954    
     29600   696.27519     -1209540.8      0             -1194832        839.67975    
     29650   706.51553     -1209782.2      0             -1194857        780.54281    
     29700   703.14254     -1209728.1      0             -1194874.2      956.6079     
     29750   699.40376     -1209639.6      0             -1194864.7      634.18242    
     29800   694.95482     -1209512.7      0             -1194831.8      887.35634    
     29850   702.37812     -1209531.3      0             -1194693.6      779.57514    
     29900   710.33034     -1209506.9      0             -1194501.1      774.29041    
     29950   713.1944      -1209478.9      0             -1194412.7      516.78196    
     30000   713.429       -1209499.1      0             -1194427.9      690.56426    
     30050   707.89775     -1209536.8      0             -1194582.5      605.37372    
     30100   695.00741     -1209463.7      0             -1194781.7      671.21515    
     30150   705.5655      -1209802.2      0             -1194897.1      350.30399    
     30200   702.30988     -1209820.8      0             -1194984.5      533.22484    
     30250   700.99908     -1209863.9      0             -1195055.3      510.07446    
     30300   705.35075     -1210018.7      0             -1195118.1      292.22386    
     30350   700.94043     -1209987.3      0             -1195179.9      22.065423    
     30400   699.77835     -1210018.4      0             -1195235.6     -318.1416     
     30450   688.40896     -1209830.7      0             -1195288       -419.62143    
     30500   694.00047     -1209991.5      0             -1195330.8     -375.42941    
     30550   697.6044      -1210101.4      0             -1195364.5     -696.83473    
     30600   694.47678     -1210035.5      0             -1195364.7     -330.0743     
     30650   705.43016     -1210194.5      0             -1195292.3     -462.66178    
     30700   700.56365     -1209981.4      0             -1195182       -250.46018    
     30750   709.13554     -1210053.4      0             -1195072.9     -502.22064    
     30800   706.10059     -1209911        0             -1194994.6     -910.01459    
     30850   706.77562     -1209890        0             -1194959.4     -439.932      
     30900   698.98028     -1209820.2      0             -1195054.3     -296.03451    
     30950   700.76852     -1210051.2      0             -1195247.4     -877.3986     
     31000   687.75743     -1209952.8      0             -1195423.9     -846.33291    
     31050   698.27928     -1210237.9      0             -1195486.7     -840.28807    
     31100   703.45067     -1210364.1      0             -1195503.7     -821.88476    
     31150   702.31248     -1210320.1      0             -1195483.8     -425.00004    
     31200   703.34151     -1210336        0             -1195477.9      64.093927    
     31250   704.34558     -1210374.9      0             -1195495.6      693.61392    
     31300   705.78963     -1210470.7      0             -1195560.9      209.51996    
     31350   695.90123     -1210430.4      0             -1195729.5      784.20712    
     31400   695.62376     -1210603.7      0             -1195908.7      512.50743    
     31450   695.78609     -1210688.2      0             -1195989.7      311.25508    
     31500   697.23151     -1210681.8      0             -1195952.8      1215.8519    
     31550   697.89912     -1210608.1      0             -1195865        611.459      
     31600   693.46172     -1210403.7      0             -1195754.4      912.83405    
     31650   701.34661     -1210463.7      0             -1195647.8      946.88586    
     31700   696.32283     -1210312.7      0             -1195602.9      931.92573    
     31750   699.31936     -1210366.2      0             -1195593        1002.975     
     31800   697.17907     -1210341.4      0             -1195613.5      1232.1717    
     31850   710.45733     -1210637.7      0             -1195629.3      1255.0923    
     31900   706.89507     -1210654.1      0             -1195721        1245.1468    
     31950   702.30372     -1210655.1      0             -1195818.9      1377.2845    
     32000   697.18522     -1210649.9      0             -1195921.9      1351.9841    
     32050   696.63515     -1210692.6      0             -1195976.2      1413.0495    
     32100   694.77344     -1210684.8      0             -1196007.7      992.89097    
     32150   698.99851     -1210733.1      0             -1195966.7      1292.5231    
     32200   704.33259     -1210705.5      0             -1195826.5      1612.8341    
     32250   699.62448     -1210407.9      0             -1195628.4      1302.3117    
     32300   708.91767     -1210465.9      0             -1195490        1447.9783    
     32350   706.87526     -1210385.5      0             -1195452.8      1073.4977    
     32400   712.13054     -1210530.5      0             -1195486.7      1472.3722    
     32450   701.839       -1210404.3      0             -1195577.9      1596.149     
     32500   707.20847     -1210637        0             -1195697.2      1534.413     
     32550   698.86367     -1210584.7      0             -1195821.2      1651.6084    
     32600   699.76301     -1210668.9      0             -1195886.4      1033.2537    
     32650   700.21031     -1210688        0             -1195896.1      1243.5424    
     32700   702.49945     -1210729.1      0             -1195888.8      705.05543    
     32750   700.89625     -1210707.5      0             -1195901.1      838.65459    
     32800   703.96444     -1210811.9      0             -1195940.6      748.38639    
     32850   690.36183     -1210538.4      0             -1195954.5      116.04081    
     32900   690.18688     -1210505.4      0             -1195925.2     -370.73492    
     32950   698.61478     -1210598.4      0             -1195840.1     -190.04144    
     33000   707.5971      -1210628        0             -1195680       -364.42027    
     33050   708.98318     -1210512.8      0             -1195535.5     -2.4276642    
     33100   702.96584     -1210365.7      0             -1195515.5     -224.33469    
     33150   708.40721     -1210520.3      0             -1195555.2      21.066811    
     33200   701.89873     -1210492.1      0             -1195664.5      159.08225    
     33250   703.00363     -1210684.6      0             -1195833.7      733.19494    
     33300   697.10452     -1210725.9      0             -1195999.6      915.2204     
     33350   695.80613     -1210772.8      0             -1196073.9      959.21984    
     33400   692.0404      -1210693.8      0             -1196074.4      1426.2088    
     33450   688.58452     -1210578.9      0             -1196032.5      1849.2857    
     33500   706.59126     -1210909.1      0             -1195982.3      2130.7894    
     33550   702.64354     -1210739.8      0             -1195896.4      2018.3414    
     33600   702.54433     -1210656.5      0             -1195815.3      1468.2463    
     33650   696.74269     -1210441.2      0             -1195722.5      1785.5996    
     33700   700.52849     -1210441.5      0             -1195642.8      1400.2717    
     33750   714.27799     -1210654.8      0             -1195565.7      1835.9847    
     33800   701.17521     -1210367.4      0             -1195555.1      1267.177     
     33850   709.39823     -1210626.9      0             -1195640.9      1606.2547    
     33900   699.9059      -1210678.5      0             -1195893        1500.9124    
     33950   697.03387     -1210785.9      0             -1196061.1      1827.7411    
     34000   692.81995     -1210773.2      0             -1196137.4      1383.3633    
     34050   691.44404     -1210697.4      0             -1196090.6      1332.0544    
     34100   698.62082     -1210737.7      0             -1195979.3      1444.6151    
     34150   702.59508     -1210701.9      0             -1195859.5      915.23461    
     34200   694.43688     -1210427.4      0             -1195757.5      1285.3354    
     34250   707.07537     -1210634.3      0             -1195697.4      1347.828     
     34300   701.77301     -1210495.8      0             -1195670.8      559.42938    
     34350   701.38086     -1210507.4      0             -1195690.7      929.62853    
     34400   689.37353     -1210375.7      0             -1195812.7      1097.8786    
     34450   688.00696     -1210596.7      0             -1196062.6      714.52082    
     34500   688.38551     -1210751.9      0             -1196209.7      953.98499    
     34550   699.23667     -1210974        0             -1196202.6      1125.0456    
     34600   697.50151     -1210874.5      0             -1196139.8      1284.8816    
     34650   696.06663     -1210729.2      0             -1196024.8      900.41126    
     34700   705.34933     -1210801.5      0             -1195901        1024.6226    
     34750   710.89755     -1210838.8      0             -1195821.1      942.26742    
     34800   711.25191     -1210853.3      0             -1195828.1      932.61678    
     34850   707.02555     -1210807.6      0             -1195871.7      926.97326    
     34900   703.32361     -1210820.3      0             -1195962.6      373.89853    
     34950   704.53704     -1210909.8      0             -1196026.4      603.87152    
     35000   698.7607      -1210860.1      0             -1196098.8      347.53326    
     35050   689.77652     -1210701.5      0             -1196129.9     -86.078539    
     35100   694.24313     -1210803.5      0             -1196137.6     -42.273765    
     35150   699.13145     -1210915.2      0             -1196146.1      124.69738    
     35200   702.08777     -1210983.6      0             -1196152        407.30208    
     35250   702.31534     -1210995        0             -1196158.6      361.08782    
     35300   709.34166     -1211138.4      0             -1196153.6      386.36848    
     35350   707.73274     -1211111        0             -1196160.2      348.43575    
     35400   706.55341     -1211116.3      0             -1196190.4      23.106294    
     35450   694.34762     -1210906        0             -1196237.9     -95.371728    
     35500   703.99516     -1211163.1      0             -1196291.2      797.9037     
     35550   687.90355     -1210894.6      0             -1196362.7      297.34351    
     35600   682.66761     -1210823        0             -1196401.7      794.49465    
     35650   689.47606     -1210992        0             -1196426.9      693.61713    
     35700   695.83705     -1211100.2      0             -1196400.7      693.14593    
     35750   698.11697     -1211071.8      0             -1196324.1      697.78891    
     35800   695.41582     -1210871.9      0             -1196181.2      679.32134    
     35850   712.65818     -1211079.6      0             -1196024.7      975.27581    
     35900   707.27733     -1210871.5      0             -1195930.3      1016.9832    
     35950   709.25229     -1210919.8      0             -1195936.8      1005.6988    
     36000   702.67613     -1210859.9      0             -1196015.9      1296.1674    
     36050   703.22862     -1211005        0             -1196149.3      1192.8657    
     36100   698.22107     -1211029.9      0             -1196280        1274.217     
     36150   691.68534     -1210977.1      0             -1196365.3      1389.7397    
     36200   696.34427     -1211095.6      0             -1196385.3      1408.7607    
     36250   684.17562     -1210812.3      0             -1196359.1      1305.3035    
     36300   705.55216     -1211212.9      0             -1196308.1      1251.963     
     36350   702.80343     -1211111.1      0             -1196264.4      1364.3101    
     36400   697.09565     -1210922.1      0             -1196195.9      1602.4085    
     36450   700.55777     -1210945        0             -1196145.7      1786.568     
     36500   699.79124     -1210890.5      0             -1196107.4      1246.1728    
     36550   703.68601     -1210912.8      0             -1196047.4      1513.9591    
     36600   707.62748     -1210959.9      0             -1196011.3      983.83492    
     36650   703.6334      -1210936.6      0             -1196072.3      853.14305    
     36700   696.71901     -1210918.4      0             -1196200.2      957.55954    
     36750   685.61326     -1210838.6      0             -1196355        674.88428    
     36800   688.52901     -1211016.8      0             -1196471.7      307.72446    
     36850   697.59239     -1211268.6      0             -1196532        345.5701     
     36900   696.1781      -1211244.2      0             -1196537.5      615.15683    
     36950   695.2044      -1211164.8      0             -1196478.6      450.90765    
     37000   704.09164     -1211204.1      0             -1196330.2      481.63819    
     37050   712.19838     -1211158.1      0             -1196112.9      504.06869    
     37100   705.53936     -1210929.9      0             -1196025.4      833.74928    
     37150   706.24958     -1210940.9      0             -1196021.4      502.94902    
     37200   697.02484     -1210798.9      0             -1196074.3      1114.465     
     37250   706.92429     -1211100.9      0             -1196167.1      877.99486    
     37300   695.76523     -1210988.7      0             -1196290.7      1080.0438    
     37350   708.53188     -1211331.8      0             -1196364        769.2389     
     37400   705.51651     -1211311.6      0             -1196407.6      784.34304    
     37450   705.974       -1211354.7      0             -1196441        518.75848    
     37500   708.63443     -1211454.1      0             -1196484.2      961.5842     
     37550   697.78791     -1211294.3      0             -1196553.6      339.42476    
     37600   684.92056     -1211130.2      0             -1196661.3      162.93339    
     37650   690.85892     -1211420.5      0             -1196826.1      536.76498    
     37700   686.47744     -1211435.9      0             -1196934.1      673.58596    
     37750   686.39204     -1211426.4      0             -1196926.4      597.63829    
     37800   685.47        -1211302.9      0             -1196822.3      395.96644    
     37850   698.57389     -1211371.4      0             -1196614        358.58127    
     37900   698.68876     -1211245.4      0             -1196485.6      289.04721    
     37950   707.95543     -1211400.6      0             -1196445.1      759.09065    
     38000   702.75733     -1211296.5      0             -1196450.7      487.28426    
     38050   702.47746     -1211328.3      0             -1196488.5      289.5737     
     38100   703.35707     -1211425.1      0             -1196566.7      440.45942    
     38150   703.29678     -1211558.5      0             -1196701.3      373.7386     
     38200   693.15482     -1211482.1      0             -1196839.2      228.25585    
     38250   694.47791     -1211589        0             -1196918.1      522.68983    
     38300   691.96452     -1211531.6      0             -1196913.9      12.331039    
     38350   691.89558     -1211407.6      0             -1196791.3      509.4834     
     38400   705.05038     -1211373.2      0             -1196479       -11.878757    
     38450   714.52998     -1211445.1      0             -1196350.7      495.52903    
     38500   704.48882     -1211241        0             -1196358.7      490.9243     
     38550   702.3641      -1211271.7      0             -1196434.2      471.77946    
     38600   701.68384     -1211386        0             -1196563        460.5547     
     38650   706.63452     -1211623.9      0             -1196696.3      331.66668    
     38700   702.7905      -1211654.1      0             -1196807.6      218.13583    
     38750   704.81959     -1211777.5      0             -1196888.2      756.1589     
     38800   704.42216     -1211808.5      0             -1196927.6      318.31981    
     38850   691.54763     -1211522.2      0             -1196913.2      378.31018    
     38900   704.53377     -1211705.9      0             -1196822.6      269.57723    
     38950   709.59756     -1211631.3      0             -1196641.1      453.78717    
     39000   711.19686     -1211452.8      0             -1196428.7      317.03841    
     39050   705.47026     -1211257.2      0             -1196354.1      185.40965    
     39100   713.58701     -1211485        0             -1196410.5      231.76346    
     39150   700.50045     -1211297.1      0             -1196499        82.767754    
     39200   710.19622     -1211586.7      0             -1196583.8      405.14567    
     39250   693.80791     -1211333.8      0             -1196677.1     -23.247177    
     39300   700.74587     -1211565.5      0             -1196762.3      94.660601    
     39350   702.61648     -1211729.6      0             -1196886.8      657.63808    
     39400   690.59022     -1211555        0             -1196966.2      544.10104    
     39450   696.74107     -1211698.3      0             -1196979.6      596.87825    
     39500   679.00995     -1211299.2      0             -1196955.1      549.30787    
     39550   689.48615     -1211411.4      0             -1196846        354.34282    
     39600   700.07656     -1211498.2      0             -1196709.1     -14.25345     
     39650   708.48566     -1211489.4      0             -1196522.6      83.207786    
     39700   713.44139     -1211445.7      0             -1196374.2      210.9146     
     39750   708.70201     -1211267        0             -1196295.7      134.18228    
     39800   713.76678     -1211293.4      0             -1196215.1      246.05778    
     39850   716.23876     -1211333.3      0             -1196202.7      866.64391    
     39900   710.7943      -1211349.9      0             -1196334.3      493.24423    
     39950   714.2404      -1211648.8      0             -1196560.5      480.06585    
     40000   693.64547     -1211431.5      0             -1196778.2      654.4195     
     40050   696.03505     -1211617.4      0             -1196913.6      643.03505    
     40100   696.31329     -1211720.7      0             -1197011        524.26698    
     40150   696.73144     -1211806.2      0             -1197087.8      270.36604    
     40200   702.83901     -1211965.7      0             -1197118.2      259.77983    
     40250   698.95093     -1211878.7      0             -1197113.3      505.50393    
     40300   696.36048     -1211747.9      0             -1197037.3      84.972895    
     40350   708.48561     -1211863.4      0             -1196896.6      344.57749    
     40400   696.69046     -1211492.3      0             -1196774.7      700.14236    
     40450   701.19875     -1211536        0             -1196723.1      360.58785    
     40500   705.49488     -1211636.9      0             -1196733.3     -182.49044    
     40550   706.60515     -1211706.4      0             -1196779.3      78.96429     
     40600   699.62588     -1211710.8      0             -1196931.2      341.98168    
     40650   698.68834     -1211952.5      0             -1197192.7      285.41822    
     40700   693.9958      -1211980.2      0             -1197319.6      819.75328    
     40750   688.66135     -1211870.6      0             -1197322.6      609.61321    
     40800   697.17383     -1211952.3      0             -1197224.5      214.88034    
     40850   698.59635     -1211822.7      0             -1197064.9      186.49968    
     40900   705.30546     -1211822.7      0             -1196923.1      198.95751    
     40950   699.43477     -1211610.9      0             -1196835.3      420.85767    
     41000   715.25274     -1211901.1      0             -1196791.4      1034.2822    
     41050   698.11573     -1211580.8      0             -1196833.1      1438.7232    
     41100   701.80971     -1211767.7      0             -1196941.9      1083.5555    
     41150   694.82538     -1211747        0             -1197068.8      668.19431    
     41200   701.62224     -1211961.7      0             -1197139.9      1187.3356    
     41250   698.98783     -1211924.2      0             -1197158.1      1288.3237    
     41300   695.29564     -1211814.4      0             -1197126.3      1059.3459    
     41350   703.11039     -1211856.4      0             -1197003.2      984.05287    
     41400   697.30923     -1211422.7      0             -1196692.1      1104.3051    
     41450   701.75233     -1211361.1      0             -1196536.6      761.36023    
     41500   713.16275     -1211573        0             -1196507.4      1149.122     
     41550   712.22142     -1211620.7      0             -1196575        745.9749     
     41600   705.55075     -1211642.3      0             -1196737.5      1185.2624    
[...]
     49300   701.8214      -1212561.4      0             -1197735.4      393.24021    
     49350   697.97859     -1212363.7      0             -1197618.9      200.03655    
     49400   712.28153     -1212571.9      0             -1197525        287.18772    
     49450   710.41994     -1212515.1      0             -1197507.5     -170.17852    
     49500   707.08215     -1212504.4      0             -1197567.3      340.47414    
     49550   702.05236     -1212608        0             -1197777.1     -59.688724    
     49600   696.15096     -1212688.6      0             -1197982.4     -203.32303    
     49650   694.76433     -1212719.3      0             -1198042.4     -206.6337     
     49700   690.92904     -1212593.7      0             -1197997.8     -44.497779    
     49750   703.37269     -1212776.6      0             -1197917.9      440.85731    
     49800   692.77839     -1212460        0             -1197825.1      28.986848    
     49850   703.29457     -1212583.8      0             -1197726.7      226.61765    
     49900   701.49037     -1212501        0             -1197682        341.05707    
     49950   701.13137     -1212445.9      0             -1197634.5      829.88181    
     50000   698.74624     -1212367.1      0             -1197606.1      169.82648    
     50050   710.08074     -1212595        0             -1197594.5      610.78699    
     50100   696.87096     -1212360.1      0             -1197638.7      575.37803    
     50150   697.81824     -1212500.8      0             -1197759.4      926.79846    
     50200   693.69915     -1212552.2      0             -1197897.8      548.96553    
     50250   695.81584     -1212700.5      0             -1198001.4      420.13893    
     50300   700.74755     -1212875.2      0             -1198071.9      329.68294    
     50350   693.28668     -1212737.4      0             -1198091.7      449.34547    
     50400   690.16121     -1212624.9      0             -1198045.2      225.3926     
     50450   695.31466     -1212614.7      0             -1197926.2      633.90232    
     50500   703.09299     -1212572.6      0             -1197719.7      282.43367    
     50550   699.00486     -1212374.9      0             -1197608.4      38.668797    
     50600   707.62238     -1212509.4      0             -1197560.9      107.04722    
     50650   711.26497     -1212607.9      0             -1197582.4      306.96681    
     50700   710.18374     -1212641.1      0             -1197638.5      156.98613    
     50750   703.52746     -1212580.8      0             -1197718.8      501.8613     
     50800   714.61909     -1212895.2      0             -1197798.8      306.72384    
     50850   700.64829     -1212684        0             -1197882.8      297.69911    
     50900   696.45111     -1212628.1      0             -1197915.6     -152.97712    
     50950   695.71807     -1212619.4      0             -1197922.4      335.14297    
     51000   706.22547     -1212848.9      0             -1197929.9      547.88789    
     51050   703.3274      -1212801.1      0             -1197943.3      425.06657    
     51100   703.85433     -1212869.6      0             -1198000.7      478.3348     
     51150   690.3523      -1212682.5      0             -1198098.9      633.67521    
     51200   688.04479     -1212822.8      0             -1198287.8      765.49108    
     51250   697.78439     -1213181.7      0             -1198441        581.68901    
     51300   692.82207     -1213150.4      0             -1198514.6      464.34178    
     51350   682.51587     -1212894.8      0             -1198476.6      278.4842     
     51400   691.89002     -1212920.4      0             -1198304.2     -37.206708    
     51450   691.92626     -1212724.7      0             -1198107.8      302.27236    
     51500   699.24703     -1212810.9      0             -1198039.3      593.64444    
     51550   705.48732     -1212904.3      0             -1198000.9      926.02854    
     51600   702.75856     -1212818.6      0             -1197972.8      784.45077    
     51650   701.98187     -1212761.9      0             -1197932.6      583.80243    
     51700   703.16558     -1212744.4      0             -1197890        23.853368    
     51750   696.76992     -1212583.3      0             -1197864        314.89799    
     51800   703.74591     -1212698.8      0             -1197832.2      594.28322    
     51850   703.32235     -1212715.9      0             -1197858.2      1083.9031    
     51900   700.27184     -1212748.7      0             -1197955.4      837.64872    
     51950   699.44888     -1212885        0             -1198109.1      1180.7342    
     52000   689.86946     -1212818.4      0             -1198244.9      959.85061    
     52050   697.3456      -1213046.2      0             -1198314.8      1307.9531    
     52100   689.8581      -1212889.7      0             -1198316.5      1419.1979    
     52150   697.95915     -1212996.6      0             -1198252.2      1575.9082    
     52200   695.73765     -1212741.9      0             -1198044.4      1180.3252    
     52250   705.57482     -1212749.7      0             -1197844.4      1549.4709    
     52300   711.14173     -1212814.7      0             -1197791.8      1284.1565    
     52350   698.95722     -1212592.2      0             -1197826.7      1171.8445    
     52400   704.93773     -1212784.7      0             -1197892.8      1040.8284    
     52450   697.29716     -1212702.6      0             -1197972.2      1107.1236    
     52500   702.61654     -1212895.2      0             -1198052.4      1162.0246    
     52550   691.56159     -1212727.7      0             -1198118.5      815.99879    
     52600   694.51331     -1212824.8      0             -1198153.2      1062.5077    
     52650   695.33103     -1212850.4      0             -1198161.5      1118.1006    
     52700   695.06555     -1212783.7      0             -1198100.5      933.99531    
     52750   698.21902     -1212704.4      0             -1197954.6      1030.1454    
     52800   699.71551     -1212583.9      0             -1197802.5      1272.2851    
     52850   701.91995     -1212539.9      0             -1197711.8      1208.8028    
     52900   707.79207     -1212648.4      0             -1197696.3      1653.3397    
     52950   706.15641     -1212685.4      0             -1197767.9      1213.0214    
     53000   702.0835      -1212741.8      0             -1197910.3      1311.3376    
     53050   703.9457      -1212937.2      0             -1198066.4      1336.5612    
     53100   698.03494     -1212936.5      0             -1198190.5      1359.3768    
     53150   699.09872     -1213005.5      0             -1198237        995.90464    
     53200   689.88405     -1212806.9      0             -1198233.1      1023.8531    
     53250   698.36999     -1212937.3      0             -1198184.2      576.79429    
     53300   701.51503     -1212933.7      0             -1198114.2      957.0546     
     53350   700.74123     -1212849.8      0             -1198046.6      286.71881    
     53400   701.00193     -1212785.3      0             -1197976.6      625.45188    
     53450   709.68882     -1212905.8      0             -1197913.6      805.47828    
     53500   712.18746     -1212938        0             -1197893.1      842.77407    
     53550   700.76196     -1212740.7      0             -1197937.1      1066.8778    
     53600   706.71258     -1213016.4      0             -1198087.1      1111.5979    
     53650   693.68929     -1212924.9      0             -1198270.7      1236.2368    
     53700   692.5601      -1213003.7      0             -1198373.4      1082.1634    
     53750   695.31557     -1213074        0             -1198385.4      950.03603    
     53800   694.28803     -1212982.8      0             -1198316        1323.5599    
     53850   697.56591     -1212903.1      0             -1198167        1346.2912    
     53900   698.2674      -1212763.6      0             -1198012.7      1388.5715    
     53950   703.29764     -1212761.7      0             -1197904.6      1191.6993    
     54000   705.86133     -1212794        0             -1197882.6      1440.5907    
     54050   704.56143     -1212809        0             -1197925.1      1229.1308    
     54100   697.8693      -1212720.2      0             -1197977.7      630.35947    
     54150   707.64819     -1212989.1      0             -1198040        994.59937    
     54200   698.06285     -1212875.2      0             -1198128.6      1010.0818    
     54250   695.83909     -1212934        0             -1198234.4      1104.0194    
     54300   689.92402     -1212908.3      0             -1198333.7      1404.3419    
     54350   687.36283     -1212982        0             -1198461.4      1002.938     
     54400   676.72653     -1212887.1      0             -1198591.2      376.14652    
     54450   684.74985     -1213110.6      0             -1198645.3      909.66965    
     54500   694.36507     -1213192.6      0             -1198524.1      522.33889    
     54550   691.8184      -1212930.9      0             -1198316.2      670.16479    
     54600   703.86399     -1213038.6      0             -1198169.5      719.59073    
     54650   688.92608     -1212639.7      0             -1198086.1      850.19653    
     54700   694.852       -1212734.2      0             -1198055.4      164.50246    
     54750   700.43073     -1212829.5      0             -1198032.9      1013.5024    
     54800   709.45405     -1213017.3      0             -1198030.1      1157.4218    
     54850   702.11263     -1212945.7      0             -1198113.5      920.2341     
     54900   699.8247      -1213081.2      0             -1198297.4      1225.1768    
     54950   699.72926     -1213240        0             -1198458.2      1288.4769    
     55000   692.35346     -1213159        0             -1198533        1193.2105    
     55050   692.34385     -1213133.3      0             -1198507.5      820.36321    
     55100   691.71194     -1213065.5      0             -1198453.1      844.27608    
     55150   703.55851     -1213239.1      0             -1198376.4      854.3629     
     55200   698.43647     -1213075.6      0             -1198321.1      850.06746    
     55250   708.24761     -1213266.2      0             -1198304.5      761.70306    
     55300   699.60843     -1213084.7      0             -1198305.5      569.29341    
     55350   699.17722     -1213096.3      0             -1198326.2      491.42578    
     55400   699.47019     -1213105.8      0             -1198329.5      674.78545    
     55450   699.53858     -1213127.5      0             -1198349.7      387.25953    
     55500   703.57463     -1213265        0             -1198402        733.84747    
     55550   692.6459      -1213260.9      0             -1198628.7      330.53543    
     55600   688.97637     -1213417.9      0             -1198863.3      737.55595    
     55650   680.45712     -1213285.5      0             -1198910.8      727.69288    
     55700   697.21201     -1213556.3      0             -1198827.7      133.33897    
     55750   691.13445     -1213284.3      0             -1198684        371.45177    
     55800   697.87954     -1213283.8      0             -1198541.1      6.5311943    
     55850   694.42885     -1213101.8      0             -1198432        743.96339    
     55900   698.14573     -1213105.7      0             -1198357.4      643.51276    
     55950   696.96685     -1213027.7      0             -1198304.3      494.13735    
     56000   704.79845     -1213174.5      0             -1198285.6      90.566245    
     56050   704.83408     -1213184        0             -1198294.4     -18.76205     
     56100   701.32015     -1213122.4      0             -1198307        836.55044    
     56150   704.70714     -1213261        0             -1198374.1      704.33363    
     56200   695.20846     -1213200.1      0             -1198513.8      857.11832    
     56250   689.97038     -1213252.4      0             -1198676.8      1256.6651    
     56300   699.13101     -1213553.2      0             -1198784        706.17461    
     56350   693.33865     -1213444        0             -1198797.3      465.7701     
     56400   698.73504     -1213476.4      0             -1198715.6      477.34435    
     56450   695.99409     -1213261.4      0             -1198558.6      216.2766     
     56500   705.7857      -1213325.1      0             -1198415.4      201.15901    
     56550   704.37877     -1213209.4      0             -1198329.4      482.41408    
     56600   691.11848     -1212907.1      0             -1198307.2     -340.62236    
     56650   703.66734     -1213163.5      0             -1198298.5     -47.632898    
     56700   706.82193     -1213271.9      0             -1198340.3      465.13148    
     56750   695.11091     -1213115.2      0             -1198430.9      31.184852    
     56800   698.86215     -1213277.8      0             -1198514.3     -114.17034    
     56850   684.90486     -1213052.1      0             -1198583.5      244.07124    
     56900   696.92132     -1213381        0             -1198658.5      339.71176    
     56950   685.5573      -1213255        0             -1198772.6      317.30164    
     57000   695.9648      -1213566.1      0             -1198863.8      314.35749    
     57050   690.74663     -1213502.5      0             -1198910.4      649.04372    
     57100   686.40922     -1213338.7      0             -1198838.3      744.91114    
     57150   687.82718     -1213172.6      0             -1198642.2      1039.0206    
     57200   698.13123     -1213207.6      0             -1198459.5      496.71713    
     57250   699.58982     -1213152.9      0             -1198374.1      327.42813    
     57300   702.89324     -1213175.8      0             -1198327.2      174.5691     
     57350   698.30078     -1213045.7      0             -1198294.1      1001.0687    
     57400   706.5851      -1213201.6      0             -1198275        820.41951    
     57450   705.53748     -1213227.5      0             -1198323        918.80758    
     57500   694.9807      -1213109.7      0             -1198428.2      903.25229    
     57550   693.40412     -1213222.4      0             -1198574.3      721.53428    
     57600   688.77374     -1213262.3      0             -1198711.9      652.37047    
     57650   694.3769      -1213445.1      0             -1198776.4      415.06534    
     57700   681.43434     -1213163        0             -1198767.7      690.10064    
     57750   699.28386     -1213354.9      0             -1198582.5      425.23488    
     57800   694.86453     -1213013        0             -1198333.9      1212.6653    
     57850   709.51325     -1213241.9      0             -1198253.5      751.39348    
     57900   693.89648     -1212902.2      0             -1198243.7      767.89778    
     57950   712.1147      -1213299.1      0             -1198255.7      978.45641    
     58000   705.44285     -1213223.3      0             -1198320.8      938.83585    
     58050   702.93139     -1213266.8      0             -1198417.3      288.29502    
     58100   702.42322     -1213373.8      0             -1198535.1      700.61664    
     58150   693.16767     -1213302.2      0             -1198659        955.72111    
     58200   697.07235     -1213452.8      0             -1198727.2      744.0244     
     58250   690.97664     -1213304.5      0             -1198707.6      1032.8883    
     58300   690.08434     -1213138.4      0             -1198560.3      365.93606    
     58350   701.40457     -1213103.2      0             -1198286        564.95699    
     58400   708.44385     -1213149.4      0             -1198183.5      271.78643    
     58450   701.42214     -1213007        0             -1198189.4      313.81383    
     58500   701.25145     -1213050.5      0             -1198236.5      356.94906    
     58550   706.75653     -1213275.9      0             -1198345.6      385.90166    
     58600   694.54563     -1213156        0             -1198483.7      101.41602    
     58650   693.07152     -1213239.3      0             -1198598.1      468.88082    
     58700   691.77965     -1213280.1      0             -1198666.3      244.28095    
     58750   695.16539     -1213357.2      0             -1198671.8      404.97708    
     58800   706.61493     -1213555.1      0             -1198627.9      388.84149    
     58850   696.60912     -1213268.9      0             -1198553.1      585.38321    
     58900   709.01689     -1213338.6      0             -1198360.6      435.2159     
     58950   713.5976      -1213179.7      0             -1198105        673.3759     
     59000   713.46281     -1213132.2      0             -1198060.3      286.47217    
     59050   705.40676     -1213044.2      0             -1198142.5      312.67774    
     59100   706.70554     -1213191.5      0             -1198262.3      178.57717    
     59150   698.94678     -1213163.4      0             -1198398.1      209.06281    
     59200   704.52301     -1213395.3      0             -1198512.3     -67.575952    
     59250   693.89506     -1213264.7      0             -1198606.2      653.92546    
     59300   705.66919     -1213561.9      0             -1198654.6      684.88112    
     59350   694.04659     -1213303        0             -1198641.3      977.91393    
     59400   697.16972     -1213316.4      0             -1198588.7      528.9143     
     59450   700.68151     -1213292.3      0             -1198490.4      754.99632    
     59500   705.7171      -1213188.3      0             -1198280        1680.718     
     59550   718.26652     -1213312.2      0             -1198138.8      671.89737    
     59600   710.47733     -1213142.8      0             -1198134        922.89641    
     59650   707.86667     -1213161.2      0             -1198207.5      1006.1183    
     59700   709.39978     -1213331.2      0             -1198345.1      983.59285    
     59750   696.00723     -1213201.3      0             -1198498.2      964.45915    
     59800   705.10996     -1213468.4      0             -1198572.9      1491.2878    
     59850   693.43899     -1213240.5      0             -1198591.6      1488.3215    
     59900   695.04391     -1213256.6      0             -1198573.8      877.86026    
     59950   698.03205     -1213283.7      0             -1198537.7      926.69744    
     60000   702.06526     -1213322.1      0             -1198490.9      1166.0958    
     60013   690.79219     -1213073.1      0             -1198480.1      1075.3079    
Loop time of 12798 on 48 procs for 50000 steps with 7088 atoms

Performance: 0.169 ns/day, 142.200 hours/ns, 3.907 timesteps/s, 27.692 katom-step/s
99.7% CPU use with 1 MPI tasks x 48 OpenMP threads

MPI task timing breakdown:
Section |  min time  |  avg time  |  max time  |%varavg| %total
---------------------------------------------------------------
Pair    | 11372      | 11372      | 11372      |   0.0 | 88.85
Neigh   | 10.072     | 10.072     | 10.072     |   0.0 |  0.08
Comm    | 1.2046     | 1.2046     | 1.2046     |   0.0 |  0.01
Output  | 1.2726     | 1.2726     | 1.2726     |   0.0 |  0.01
Modify  | 1412.3     | 1412.3     | 1412.3     |   0.0 | 11.04
Other   |            | 1.579      |            |       |  0.01

Nlocal:           7088 ave        7088 max        7088 min
Histogram: 1 0 0 0 0 0 0 0 0 0
Nghost:           4070 ave        4070 max        4070 min
Histogram: 1 0 0 0 0 0 0 0 0 0
Neighs:     1.2603e+06 ave  1.2603e+06 max  1.2603e+06 min
Histogram: 1 0 0 0 0 0 0 0 0 0

Total # of neighbors = 1260302
Ave neighs/atom = 177.80784
Neighbor list builds = 408
Dangerous builds = 0
Total wall time: 4:15:06
