ITEM: TIMESTEP
0
ITEM: NUMBER OF ATOMS
9551
ITEM: BOX BOUNDS ff ff ff
-3.0000000000000000e+02 3.0000000000000000e+02
-3.0000000000000000e+02 3.0000000000000000e+02
-3.0000000000000000e+02 3.0000000000000000e+02
ITEM: ATOMS id type xs ys zs
1 1 0.580845 0.58508 0.502792
2 1 0.578798 0.586262 0.502792
3 1 0.578798 0.588625 0.502792
4 1 0.580845 0.589807 0.502792
5 1 0.584938 0.58508 0.502792
6 1 0.582892 0.586262 0.502792
7 1 0.582892 0.588625 0.502792
8 1 0.584938 0.589807 0.502792
9 1 0.589032 0.58508 0.502792
10 1 0.586985 0.586262 0.502792
11 1 0.586985 0.588625 0.502792
12 1 0.589032 0.589807 0.502792
13 1 0.593125 0.58508 0.502792
14 1 0.744581 0.75524 0.508375
15 1 0.591078 0.588625 0.502792
16 1 0.593125 0.589807 0.502792
17 1 0.597219 0.58508 0.502792
18 1 0.595172 0.586262 0.502792
19 1 0.595172 0.588625 0.502792
20 1 0.597219 0.589807 0.502792
21 1 0.601312 0.58508 0.502792
22 1 0.599265 0.586262 0.502792
23 1 0.599265 0.588625 0.502792
24 1 0.601312 0.589807 0.502792
25 1 0.605405 0.58508 0.502792
26 1 0.742535 0.754058 0.508375
27 1 0.603359 0.588625 0.502792
28 1 0.605405 0.589807 0.502792
29 1 0.609499 0.58508 0.502792
30 1 0.607452 0.586262 0.502792
31 1 0.607452 0.588625 0.502792
32 1 0.609499 0.589807 0.502792
33 1 0.613592 0.58508 0.502792
34 1 0.611546 0.586262 0.502792
35 1 0.611546 0.588625 0.502792
36 1 0.613592 0.589807 0.502792
37 1 0.617686 0.58508 0.502792
38 1 0.615639 0.586262 0.502792
39 1 0.615639 0.588625 0.502792
40 1 0.617686 0.589807 0.502792
41 1 0.621779 0.58508 0.502792
42 1 0.619732 0.586262 0.502792
43 1 0.619732 0.588625 0.502792
44 1 0.621779 0.589807 0.502792
45 1 0.625872 0.58508 0.502792
46 1 0.742535 0.751695 0.508375
47 1 0.623826 0.588625 0.502792
48 1 0.625872 0.589807 0.502792
49 1 0.629966 0.58508 0.502792
50 1 0.627919 0.586262 0.502792
51 1 0.627919 0.588625 0.502792
52 1 0.629966 0.589807 0.502792
53 1 0.634059 0.58508 0.502792
54 1 0.632013 0.586262 0.502792
55 1 0.632013 0.588625 0.502792
56 1 0.634059 0.589807 0.502792
57 1 0.638153 0.58508 0.502792
58 1 0.636106 0.586262 0.502792
59 1 0.636106 0.588625 0.502792
60 1 0.638153 0.589807 0.502792
61 1 0.642246 0.58508 0.502792
62 1 0.640199 0.586262 0.502792
63 1 0.744581 0.750513 0.508375
64 1 0.642246 0.589807 0.502792
65 1 0.64634 0.58508 0.502792
66 1 0.644293 0.586262 0.502792
67 1 0.644293 0.588625 0.502792
68 1 0.740488 0.75524 0.508375
69 1 0.650433 0.58508 0.502792
70 1 0.648386 0.586262 0.502792
71 1 0.648386 0.588625 0.502792
72 1 0.650433 0.589807 0.502792
73 1 0.654526 0.58508 0.502792
74 1 0.65248 0.586262 0.502792
75 1 0.738441 0.754058 0.508375
76 1 0.654526 0.589807 0.502792
77 1 0.65862 0.58508 0.502792
78 1 0.656573 0.586262 0.502792
79 1 0.656573 0.588625 0.502792
80 1 0.65862 0.589807 0.502792
81 1 0.662713 0.58508 0.502792
82 1 0.738441 0.751695 0.508375
83 1 0.660666 0.588625 0.502792
84 1 0.662713 0.589807 0.502792
85 1 0.666807 0.58508 0.502792
86 1 0.66476 0.586262 0.502792
87 1 0.66476 0.588625 0.502792
88 1 0.666807 0.589807 0.502792
89 1 0.6709 0.58508 0.502792
90 1 0.668853 0.586262 0.502792
91 1 0.668853 0.588625 0.502792
92 1 0.6709 0.589807 0.502792
93 1 0.674993 0.58508 0.502792
94 1 0.672947 0.586262 0.502792
95 1 0.672947 0.588625 0.502792
96 1 0.674993 0.589807 0.502792
97 1 0.740488 0.750513 0.508375
98 1 0.67704 0.586262 0.502792
99 1 0.67704 0.588625 0.502792
100 1 0.736395 0.75524 0.508375
101 1 0.68318 0.58508 0.502792
102 1 0.681134 0.586262 0.502792
103 1 0.681134 0.588625 0.502792
104 1 0.734348 0.754058 0.508375
105 1 0.687274 0.58508 0.502792
106 1 0.685227 0.586262 0.502792
107 1 0.685227 0.588625 0.502792
108 1 0.687274 0.589807 0.502792
109 1 0.691367 0.58508 0.502792
110 1 0.68932 0.586262 0.502792
111 1 0.68932 0.588625 0.502792
112 1 0.691367 0.589807 0.502792
113 1 0.69546 0.58508 0.502792
114 1 0.734348 0.751695 0.508375
115 1 0.693414 0.588625 0.502792
116 1 0.69546 0.589807 0.502792
117 1 0.699554 0.58508 0.502792
118 1 0.697507 0.586262 0.502792
119 1 0.697507 0.588625 0.502792
120 1 0.699554 0.589807 0.502792
121 1 0.703647 0.58508 0.502792
122 1 0.701601 0.586262 0.502792
123 1 0.701601 0.588625 0.502792
124 1 0.703647 0.589807 0.502792
125 1 0.736395 0.750513 0.508375
126 1 0.705694 0.586262 0.502792
127 1 0.705694 0.588625 0.502792
128 1 0.707741 0.589807 0.502792
129 1 0.711834 0.58508 0.502792
130 1 0.709787 0.586262 0.502792
131 1 0.709787 0.588625 0.502792
132 1 0.732301 0.75524 0.508375
133 1 0.715928 0.58508 0.502792
134 1 0.713881 0.586262 0.502792
135 1 0.713881 0.588625 0.502792
136 1 0.715928 0.589807 0.502792
137 1 0.720021 0.58508 0.502792
138 1 0.717974 0.586262 0.502792
139 1 0.717974 0.588625 0.502792
140 1 0.720021 0.589807 0.502792
141 1 0.724114 0.58508 0.502792
142 1 0.722068 0.586262 0.502792
143 1 0.722068 0.588625 0.502792
144 1 0.724114 0.589807 0.502792
145 1 0.728208 0.58508 0.502792
146 1 0.726161 0.586262 0.502792
147 1 0.726161 0.588625 0.502792
148 1 0.728208 0.589807 0.502792
149 1 0.732301 0.58508 0.502792
150 1 0.730255 0.586262 0.502792
151 1 0.730255 0.588625 0.502792
152 1 0.732301 0.589807 0.502792
153 1 0.736395 0.58508 0.502792
154 1 0.734348 0.586262 0.502792
155 1 0.734348 0.588625 0.502792
156 1 0.730255 0.754058 0.508375
157 1 0.740488 0.58508 0.502792
158 1 0.738441 0.586262 0.502792
159 1 0.738441 0.588625 0.502792
160 1 0.740488 0.589807 0.502792
161 1 0.744581 0.58508 0.502792
162 1 0.742535 0.586262 0.502792
163 1 0.742535 0.588625 0.502792
164 1 0.744581 0.589807 0.502792
165 1 0.580845 0.59217 0.502792
166 1 0.578798 0.593352 0.502792
167 1 0.730255 0.751695 0.508375
168 1 0.580845 0.596897 0.502792
169 1 0.584938 0.59217 0.502792
170 1 0.582892 0.593352 0.502792
171 1 0.582892 0.595715 0.502792
172 1 0.732301 0.750513 0.508375
173 1 0.589032 0.59217 0.502792
174 1 0.586985 0.593352 0.502792
175 1 0.586985 0.595715 0.502792
176 1 0.589032 0.596897 0.502792
177 1 0.593125 0.59217 0.502792
178 1 0.591078 0.593352 0.502792
179 1 0.591078 0.595715 0.502792
180 1 0.593125 0.596897 0.502792
181 1 0.597219 0.59217 0.502792
182 1 0.595172 0.593352 0.502792
183 1 0.595172 0.595715 0.502792
184 1 0.597219 0.596897 0.502792
185 1 0.601312 0.59217 0.502792
186 1 0.599265 0.593352 0.502792
187 1 0.599265 0.595715 0.502792
188 1 0.601312 0.596897 0.502792
189 1 0.605405 0.59217 0.502792
190 1 0.603359 0.593352 0.502792
191 1 0.603359 0.595715 0.502792
192 1 0.605405 0.596897 0.502792
193 1 0.609499 0.59217 0.502792
194 1 0.607452 0.593352 0.502792
195 1 0.607452 0.595715 0.502792
196 1 0.609499 0.596897 0.502792
197 1 0.613592 0.59217 0.502792
198 1 0.611546 0.593352 0.502792
199 1 0.611546 0.595715 0.502792
200 1 0.613592 0.596897 0.502792
201 1 0.617686 0.59217 0.502792
202 1 0.615639 0.593352 0.502792
203 1 0.615639 0.595715 0.502792
204 1 0.617686 0.596897 0.502792
205 1 0.621779 0.59217 0.502792
206 1 0.619732 0.593352 0.502792
207 1 0.619732 0.595715 0.502792
208 1 0.621779 0.596897 0.502792
209 1 0.625872 0.59217 0.502792
210 1 0.623826 0.593352 0.502792
211 1 0.623826 0.595715 0.502792
212 1 0.625872 0.596897 0.502792
213 1 0.629966 0.59217 0.502792
214 1 0.627919 0.593352 0.502792
215 1 0.627919 0.595715 0.502792
216 1 0.629966 0.596897 0.502792
217 1 0.634059 0.59217 0.502792
218 1 0.632013 0.593352 0.502792
219 1 0.632013 0.595715 0.502792
220 1 0.634059 0.596897 0.502792
221 1 0.638153 0.59217 0.502792
222 1 0.636106 0.593352 0.502792
223 1 0.636106 0.595715 0.502792
224 1 0.638153 0.596897 0.502792
225 1 0.642246 0.59217 0.502792
226 1 0.640199 0.593352 0.502792
227 1 0.640199 0.595715 0.502792
228 1 0.642246 0.596897 0.502792
229 1 0.64634 0.59217 0.502792
230 1 0.644293 0.593352 0.502792
231 1 0.644293 0.595715 0.502792
232 1 0.64634 0.596897 0.502792
233 1 0.650433 0.59217 0.502792
234 1 0.648386 0.593352 0.502792
235 1 0.648386 0.595715 0.502792
236 1 0.650433 0.596897 0.502792
237 1 0.654526 0.59217 0.502792
238 1 0.65248 0.593352 0.502792
239 1 0.65248 0.595715 0.502792
240 1 0.654526 0.596897 0.502792
241 1 0.65862 0.59217 0.502792
242 1 0.656573 0.593352 0.502792
243 1 0.656573 0.595715 0.502792
244 1 0.65862 0.596897 0.502792
245 1 0.662713 0.59217 0.502792
246 1 0.660666 0.593352 0.502792
247 1 0.660666 0.595715 0.502792
248 1 0.662713 0.596897 0.502792
249 1 0.666807 0.59217 0.502792
250 1 0.728208 0.75524 0.508375
251 1 0.66476 0.595715 0.502792
252 1 0.666807 0.596897 0.502792
253 1 0.6709 0.59217 0.502792
254 1 0.668853 0.593352 0.502792
255 1 0.668853 0.595715 0.502792
256 1 0.6709 0.596897 0.502792
257 1 0.674993 0.59217 0.502792
258 1 0.672947 0.593352 0.502792
259 1 0.672947 0.595715 0.502792
260 1 0.674993 0.596897 0.502792
261 1 0.679087 0.59217 0.502792
262 1 0.67704 0.593352 0.502792
263 1 0.67704 0.595715 0.502792
264 1 0.679087 0.596897 0.502792
265 1 0.68318 0.59217 0.502792
266 1 0.681134 0.593352 0.502792
267 1 0.681134 0.595715 0.502792
268 1 0.68318 0.596897 0.502792
269 1 0.687274 0.59217 0.502792
270 1 0.685227 0.593352 0.502792
271 1 0.685227 0.595715 0.502792
272 1 0.687274 0.596897 0.502792
273 1 0.691367 0.59217 0.502792
274 1 0.68932 0.593352 0.502792
275 1 0.68932 0.595715 0.502792
276 1 0.691367 0.596897 0.502792
277 1 0.69546 0.59217 0.502792
278 1 0.693414 0.593352 0.502792
279 1 0.693414 0.595715 0.502792
280 1 0.69546 0.596897 0.502792
281 1 0.699554 0.59217 0.502792
282 1 0.697507 0.593352 0.502792
283 1 0.697507 0.595715 0.502792
284 1 0.699554 0.596897 0.502792
285 1 0.703647 0.59217 0.502792
286 1 0.701601 0.593352 0.502792
287 1 0.701601 0.595715 0.502792
288 1 0.703647 0.596897 0.502792
289 1 0.707741 0.59217 0.502792
290 1 0.705694 0.593352 0.502792
291 1 0.705694 0.595715 0.502792
292 1 0.707741 0.596897 0.502792
293 1 0.711834 0.59217 0.502792
294 1 0.709787 0.593352 0.502792
295 1 0.709787 0.595715 0.502792
296 1 0.711834 0.596897 0.502792
297 1 0.715928 0.59217 0.502792
298 1 0.713881 0.593352 0.502792
299 1 0.713881 0.595715 0.502792
300 1 0.715928 0.596897 0.502792
301 1 0.720021 0.59217 0.502792
302 1 0.726161 0.754058 0.508375
303 1 0.717974 0.595715 0.502792
304 1 0.720021 0.596897 0.502792
305 1 0.724114 0.59217 0.502792
306 1 0.722068 0.593352 0.502792
307 1 0.722068 0.595715 0.502792
308 1 0.724114 0.596897 0.502792
309 1 0.728208 0.59217 0.502792
310 1 0.726161 0.593352 0.502792
311 1 0.726161 0.595715 0.502792
312 1 0.728208 0.596897 0.502792
313 1 0.732301 0.59217 0.502792
314 1 0.730255 0.593352 0.502792
315 1 0.730255 0.595715 0.502792
316 1 0.732301 0.596897 0.502792
317 1 0.736395 0.59217 0.502792
318 1 0.734348 0.593352 0.502792
319 1 0.734348 0.595715 0.502792
320 1 0.736395 0.596897 0.502792
321 1 0.740488 0.59217 0.502792
322 1 0.738441 0.593352 0.502792
323 1 0.738441 0.595715 0.502792
324 1 0.740488 0.596897 0.502792
325 1 0.744581 0.59217 0.502792
326 1 0.742535 0.593352 0.502792
327 1 0.742535 0.595715 0.502792
328 1 0.744581 0.596897 0.502792
329 1 0.580845 0.59926 0.502792
330 1 0.578798 0.600442 0.502792
331 1 0.578798 0.602805 0.502792
332 1 0.580845 0.603987 0.502792
333 1 0.584938 0.59926 0.502792
334 1 0.582892 0.600442 0.502792
335 1 0.582892 0.602805 0.502792
336 1 0.584938 0.603987 0.502792
337 1 0.589032 0.59926 0.502792
338 1 0.586985 0.600442 0.502792
339 1 0.586985 0.602805 0.502792
340 1 0.589032 0.603987 0.502792
341 1 0.593125 0.59926 0.502792
342 1 0.591078 0.600442 0.502792
343 1 0.591078 0.602805 0.502792
344 1 0.593125 0.603987 0.502792
345 1 0.597219 0.59926 0.502792
346 1 0.595172 0.600442 0.502792
347 1 0.595172 0.602805 0.502792
348 1 0.597219 0.603987 0.502792
349 1 0.601312 0.59926 0.502792
350 1 0.599265 0.600442 0.502792
351 1 0.599265 0.602805 0.502792
352 1 0.601312 0.603987 0.502792
353 1 0.605405 0.59926 0.502792
354 1 0.603359 0.600442 0.502792
355 1 0.603359 0.602805 0.502792
356 1 0.605405 0.603987 0.502792
357 1 0.609499 0.59926 0.502792
358 1 0.607452 0.600442 0.502792
359 1 0.607452 0.602805 0.502792
360 1 0.609499 0.603987 0.502792
361 1 0.613592 0.59926 0.502792
362 1 0.611546 0.600442 0.502792
363 1 0.611546 0.602805 0.502792
364 1 0.613592 0.603987 0.502792
365 1 0.617686 0.59926 0.502792
366 1 0.615639 0.600442 0.502792
367 1 0.615639 0.602805 0.502792
368 1 0.617686 0.603987 0.502792
369 1 0.621779 0.59926 0.502792
370 1 0.619732 0.600442 0.502792
371 1 0.619732 0.602805 0.502792
372 1 0.621779 0.603987 0.502792
373 1 0.625872 0.59926 0.502792
374 1 0.623826 0.600442 0.502792
375 1 0.623826 0.602805 0.502792
376 1 0.625872 0.603987 0.502792
377 1 0.629966 0.59926 0.502792
378 1 0.627919 0.600442 0.502792
379 1 0.627919 0.602805 0.502792
380 1 0.629966 0.603987 0.502792
381 1 0.634059 0.59926 0.502792
382 1 0.632013 0.600442 0.502792
383 1 0.632013 0.602805 0.502792
384 1 0.634059 0.603987 0.502792
385 1 0.638153 0.59926 0.502792
386 1 0.636106 0.600442 0.502792
387 1 0.636106 0.602805 0.502792
388 1 0.638153 0.603987 0.502792
389 1 0.642246 0.59926 0.502792
390 1 0.640199 0.600442 0.502792
391 1 0.640199 0.602805 0.502792
392 1 0.642246 0.603987 0.502792
393 1 0.64634 0.59926 0.502792
394 1 0.644293 0.600442 0.502792
395 1 0.644293 0.602805 0.502792
396 1 0.64634 0.603987 0.502792
397 1 0.650433 0.59926 0.502792
398 1 0.648386 0.600442 0.502792
399 1 0.648386 0.602805 0.502792
400 1 0.650433 0.603987 0.502792
401 1 0.654526 0.59926 0.502792
402 1 0.65248 0.600442 0.502792
403 1 0.65248 0.602805 0.502792
404 1 0.654526 0.603987 0.502792
405 1 0.65862 0.59926 0.502792
406 1 0.656573 0.600442 0.502792
407 1 0.656573 0.602805 0.502792
408 1 0.65862 0.603987 0.502792
409 1 0.662713 0.59926 0.502792
410 1 0.660666 0.600442 0.502792
411 1 0.660666 0.602805 0.502792
412 1 0.662713 0.603987 0.502792
413 1 0.666807 0.59926 0.502792
414 1 0.66476 0.600442 0.502792
415 1 0.66476 0.602805 0.502792
416 1 0.666807 0.603987 0.502792
417 1 0.6709 0.59926 0.502792
418 1 0.668853 0.600442 0.502792
419 1 0.668853 0.602805 0.502792
420 1 0.6709 0.603987 0.502792
421 1 0.674993 0.59926 0.502792
422 1 0.672947 0.600442 0.502792
423 1 0.672947 0.602805 0.502792
424 1 0.674993 0.603987 0.502792
425 1 0.726161 0.751695 0.508375
426 1 0.67704 0.600442 0.502792
427 1 0.67704 0.602805 0.502792
428 1 0.679087 0.603987 0.502792
429 1 0.68318 0.59926 0.502792
430 1 0.681134 0.600442 0.502792
431 1 0.681134 0.602805 0.502792
432 1 0.68318 0.603987 0.502792
433 1 0.687274 0.59926 0.502792
434 1 0.685227 0.600442 0.502792
435 1 0.685227 0.602805 0.502792
436 1 0.687274 0.603987 0.502792
437 1 0.691367 0.59926 0.502792
438 1 0.68932 0.600442 0.502792
439 1 0.68932 0.602805 0.502792
440 1 0.691367 0.603987 0.502792
441 1 0.69546 0.59926 0.502792
442 1 0.693414 0.600442 0.502792
443 1 0.693414 0.602805 0.502792
444 1 0.69546 0.603987 0.502792
445 1 0.699554 0.59926 0.502792
446 1 0.697507 0.600442 0.502792
447 1 0.697507 0.602805 0.502792
448 1 0.699554 0.603987 0.502792
449 1 0.703647 0.59926 0.502792
450 1 0.701601 0.600442 0.502792
451 1 0.701601 0.602805 0.502792
452 1 0.728208 0.750513 0.508375
453 1 0.724114 0.75524 0.508375
454 1 0.705694 0.600442 0.502792
455 1 0.705694 0.602805 0.502792
456 1 0.707741 0.603987 0.502792
457 1 0.711834 0.59926 0.502792
458 1 0.709787 0.600442 0.502792
459 1 0.722068 0.754058 0.508375
460 1 0.711834 0.603987 0.502792
461 1 0.715928 0.59926 0.502792
462 1 0.713881 0.600442 0.502792
463 1 0.713881 0.602805 0.502792
464 1 0.715928 0.603987 0.502792
465 1 0.720021 0.59926 0.502792
466 1 0.717974 0.600442 0.502792
467 1 0.717974 0.602805 0.502792
468 1 0.720021 0.603987 0.502792
469 1 0.724114 0.59926 0.502792
470 1 0.722068 0.600442 0.502792
471 1 0.722068 0.602805 0.502792
472 1 0.724114 0.603987 0.502792
473 1 0.728208 0.59926 0.502792
474 1 0.726161 0.600442 0.502792
475 1 0.726161 0.602805 0.502792
476 1 0.728208 0.603987 0.502792
477 1 0.732301 0.59926 0.502792
478 1 0.730255 0.600442 0.502792
479 1 0.730255 0.602805 0.502792
480 1 0.732301 0.603987 0.502792
481 1 0.736395 0.59926 0.502792
482 1 0.734348 0.600442 0.502792
483 1 0.734348 0.602805 0.502792
484 1 0.736395 0.603987 0.502792
485 1 0.722068 0.751695 0.508375
486 1 0.738441 0.600442 0.502792
487 1 0.738441 0.602805 0.502792
488 1 0.740488 0.603987 0.502792
489 1 0.744581 0.59926 0.502792
490 1 0.742535 0.600442 0.502792
491 1 0.742535 0.602805 0.502792
492 1 0.744581 0.603987 0.502792
493 1 0.580845 0.60635 0.502792
494 1 0.578798 0.607532 0.502792
495 1 0.578798 0.609895 0.502792
496 1 0.580845 0.611077 0.502792
497 1 0.584938 0.60635 0.502792
498 1 0.582892 0.607532 0.502792
499 1 0.582892 0.609895 0.502792
500 1 0.584938 0.611077 0.502792
501 1 0.589032 0.60635 0.502792
502 1 0.586985 0.607532 0.502792
503 1 0.586985 0.609895 0.502792
504 1 0.589032 0.611077 0.502792
505 1 0.593125 0.60635 0.502792
506 1 0.591078 0.607532 0.502792
507 1 0.591078 0.609895 0.502792
508 1 0.593125 0.611077 0.502792
509 1 0.597219 0.60635 0.502792
510 1 0.595172 0.607532 0.502792
511 1 0.595172 0.609895 0.502792
512 1 0.597219 0.611077 0.502792
513 1 0.601312 0.60635 0.502792
514 1 0.599265 0.607532 0.502792
515 1 0.599265 0.609895 0.502792
516 1 0.601312 0.611077 0.502792
517 1 0.605405 0.60635 0.502792
518 1 0.603359 0.607532 0.502792
519 1 0.603359 0.609895 0.502792
520 1 0.605405 0.611077 0.502792
521 1 0.609499 0.60635 0.502792
522 1 0.607452 0.607532 0.502792
523 1 0.607452 0.609895 0.502792
524 1 0.609499 0.611077 0.502792
525 1 0.613592 0.60635 0.502792
526 1 0.611546 0.607532 0.502792
527 1 0.611546 0.609895 0.502792
528 1 0.613592 0.611077 0.502792
529 1 0.724114 0.750513 0.508375
530 1 0.615639 0.607532 0.502792
531 1 0.615639 0.609895 0.502792
532 1 0.617686 0.611077 0.502792
533 1 0.621779 0.60635 0.502792
534 1 0.619732 0.607532 0.502792
535 1 0.619732 0.609895 0.502792
536 1 0.621779 0.611077 0.502792
537 1 0.625872 0.60635 0.502792
538 1 0.623826 0.607532 0.502792
539 1 0.720021 0.75524 0.508375
540 1 0.625872 0.611077 0.502792
541 1 0.629966 0.60635 0.502792
542 1 0.627919 0.607532 0.502792
543 1 0.627919 0.609895 0.502792
544 1 0.629966 0.611077 0.502792
545 1 0.634059 0.60635 0.502792
546 1 0.632013 0.607532 0.502792
547 1 0.632013 0.609895 0.502792
548 1 0.634059 0.611077 0.502792
549 1 0.638153 0.60635 0.502792
550 1 0.636106 0.607532 0.502792
551 1 0.636106 0.609895 0.502792
552 1 0.638153 0.611077 0.502792
553 1 0.642246 0.60635 0.502792
554 1 0.640199 0.607532 0.502792
555 1 0.717974 0.754058 0.508375
556 1 0.642246 0.611077 0.502792
557 1 0.64634 0.60635 0.502792
558 1 0.644293 0.607532 0.502792
559 1 0.644293 0.609895 0.502792
560 1 0.64634 0.611077 0.502792
561 1 0.650433 0.60635 0.502792
562 1 0.648386 0.607532 0.502792
563 1 0.648386 0.609895 0.502792
564 1 0.650433 0.611077 0.502792
565 1 0.654526 0.60635 0.502792
566 1 0.65248 0.607532 0.502792
567 1 0.65248 0.609895 0.502792
568 1 0.654526 0.611077 0.502792
569 1 0.65862 0.60635 0.502792
570 1 0.656573 0.607532 0.502792
571 1 0.656573 0.609895 0.502792
572 1 0.65862 0.611077 0.502792
573 1 0.662713 0.60635 0.502792
574 1 0.660666 0.607532 0.502792
575 1 0.660666 0.609895 0.502792
576 1 0.662713 0.611077 0.502792
577 1 0.666807 0.60635 0.502792
578 1 0.66476 0.607532 0.502792
579 1 0.66476 0.609895 0.502792
580 1 0.666807 0.611077 0.502792
581 1 0.6709 0.60635 0.502792
582 1 0.668853 0.607532 0.502792
583 1 0.668853 0.609895 0.502792
584 1 0.6709 0.611077 0.502792
585 1 0.674993 0.60635 0.502792
586 1 0.672947 0.607532 0.502792
587 1 0.672947 0.609895 0.502792
588 1 0.674993 0.611077 0.502792
589 1 0.679087 0.60635 0.502792
590 1 0.67704 0.607532 0.502792
591 1 0.67704 0.609895 0.502792
592 1 0.679087 0.611077 0.502792
593 1 0.68318 0.60635 0.502792
594 1 0.681134 0.607532 0.502792
595 1 0.681134 0.609895 0.502792
596 1 0.68318 0.611077 0.502792
597 1 0.717974 0.751695 0.508375
598 1 0.685227 0.607532 0.502792
599 1 0.685227 0.609895 0.502792
600 1 0.687274 0.611077 0.502792
601 1 0.691367 0.60635 0.502792
602 1 0.68932 0.607532 0.502792
603 1 0.68932 0.609895 0.502792
604 1 0.691367 0.611077 0.502792
605 1 0.69546 0.60635 0.502792
606 1 0.693414 0.607532 0.502792
607 1 0.693414 0.609895 0.502792
608 1 0.69546 0.611077 0.502792
609 1 0.699554 0.60635 0.502792
610 1 0.697507 0.607532 0.502792
611 1 0.697507 0.609895 0.502792
612 1 0.699554 0.611077 0.502792
613 1 0.703647 0.60635 0.502792
614 1 0.701601 0.607532 0.502792
615 1 0.701601 0.609895 0.502792
616 1 0.703647 0.611077 0.502792
617 1 0.707741 0.60635 0.502792
618 1 0.705694 0.607532 0.502792
619 1 0.705694 0.609895 0.502792
620 1 0.707741 0.611077 0.502792
621 1 0.711834 0.60635 0.502792
622 1 0.709787 0.607532 0.502792
623 1 0.709787 0.609895 0.502792
624 1 0.711834 0.611077 0.502792
625 1 0.715928 0.60635 0.502792
626 1 0.713881 0.607532 0.502792
627 1 0.713881 0.609895 0.502792
628 1 0.715928 0.611077 0.502792
629 1 0.720021 0.60635 0.502792
630 1 0.717974 0.607532 0.502792
631 1 0.717974 0.609895 0.502792
632 1 0.720021 0.611077 0.502792
633 1 0.724114 0.60635 0.502792
634 1 0.722068 0.607532 0.502792
635 1 0.722068 0.609895 0.502792
636 1 0.720021 0.750513 0.508375
637 1 0.728208 0.60635 0.502792
638 1 0.726161 0.607532 0.502792
639 1 0.726161 0.609895 0.502792
640 1 0.728208 0.611077 0.502792
641 1 0.732301 0.60635 0.502792
642 1 0.730255 0.607532 0.502792
643 1 0.730255 0.609895 0.502792
644 1 0.732301 0.611077 0.502792
645 1 0.715928 0.75524 0.508375
646 1 0.734348 0.607532 0.502792
647 1 0.734348 0.609895 0.502792
648 1 0.736395 0.611077 0.502792
649 1 0.740488 0.60635 0.502792
650 1 0.738441 0.607532 0.502792
651 1 0.738441 0.609895 0.502792
652 1 0.740488 0.611077 0.502792
653 1 0.744581 0.60635 0.502792
654 1 0.742535 0.607532 0.502792
655 1 0.742535 0.609895 0.502792
656 1 0.744581 0.611077 0.502792
657 1 0.580845 0.61344 0.502792
658 1 0.578798 0.614622 0.502792
659 1 0.578798 0.616985 0.502792
660 1 0.580845 0.618167 0.502792
661 1 0.584938 0.61344 0.502792
662 1 0.582892 0.614622 0.502792
663 1 0.582892 0.616985 0.502792
664 1 0.584938 0.618167 0.502792
665 1 0.589032 0.61344 0.502792
666 1 0.586985 0.614622 0.502792
667 1 0.586985 0.616985 0.502792
668 1 0.589032 0.618167 0.502792
669 1 0.593125 0.61344 0.502792
670 1 0.591078 0.614622 0.502792
671 1 0.591078 0.616985 0.502792
672 1 0.593125 0.618167 0.502792
673 1 0.597219 0.61344 0.502792
674 1 0.595172 0.614622 0.502792
675 1 0.595172 0.616985 0.502792
676 1 0.597219 0.618167 0.502792
677 1 0.713881 0.754058 0.508375
678 1 0.599265 0.614622 0.502792
679 1 0.599265 0.616985 0.502792
680 1 0.601312 0.618167 0.502792
681 1 0.605405 0.61344 0.502792
682 1 0.603359 0.614622 0.502792
683 1 0.713881 0.751695 0.508375
684 1 0.715928 0.750513 0.508375
685 1 0.609499 0.61344 0.502792
686 1 0.607452 0.614622 0.502792
687 1 0.607452 0.616985 0.502792
688 1 0.609499 0.618167 0.502792
689 1 0.613592 0.61344 0.502792
690 1 0.611546 0.614622 0.502792
691 1 0.611546 0.616985 0.502792
692 1 0.613592 0.618167 0.502792
693 1 0.617686 0.61344 0.502792
694 1 0.615639 0.614622 0.502792
695 1 0.615639 0.616985 0.502792
696 1 0.617686 0.618167 0.502792
697 1 0.621779 0.61344 0.502792
698 1 0.619732 0.614622 0.502792
699 1 0.619732 0.616985 0.502792
700 1 0.621779 0.618167 0.502792
701 1 0.625872 0.61344 0.502792
702 1 0.623826 0.614622 0.502792
703 1 0.623826 0.616985 0.502792
704 1 0.625872 0.618167 0.502792
705 1 0.629966 0.61344 0.502792
706 1 0.627919 0.614622 0.502792
707 1 0.627919 0.616985 0.502792
708 1 0.629966 0.618167 0.502792
709 1 0.634059 0.61344 0.502792
710 1 0.632013 0.614622 0.502792
711 1 0.632013 0.616985 0.502792
712 1 0.634059 0.618167 0.502792
713 1 0.638153 0.61344 0.502792
714 1 0.636106 0.614622 0.502792
715 1 0.636106 0.616985 0.502792
716 1 0.638153 0.618167 0.502792
717 1 0.642246 0.61344 0.502792
718 1 0.640199 0.614622 0.502792
719 1 0.640199 0.616985 0.502792
720 1 0.642246 0.618167 0.502792
721 1 0.64634 0.61344 0.502792
722 1 0.644293 0.614622 0.502792
723 1 0.644293 0.616985 0.502792
724 1 0.64634 0.618167 0.502792
725 1 0.650433 0.61344 0.502792
726 1 0.648386 0.614622 0.502792
727 1 0.711834 0.75524 0.508375
728 1 0.650433 0.618167 0.502792
729 1 0.654526 0.61344 0.502792
730 1 0.65248 0.614622 0.502792
731 1 0.65248 0.616985 0.502792
732 1 0.654526 0.618167 0.502792
733 1 0.65862 0.61344 0.502792
734 1 0.656573 0.614622 0.502792
735 1 0.656573 0.616985 0.502792
736 1 0.65862 0.618167 0.502792
737 1 0.662713 0.61344 0.502792
738 1 0.660666 0.614622 0.502792
739 1 0.660666 0.616985 0.502792
740 1 0.662713 0.618167 0.502792
741 1 0.666807 0.61344 0.502792
742 1 0.709787 0.754058 0.508375
743 1 0.66476 0.616985 0.502792
744 1 0.666807 0.618167 0.502792
745 1 0.6709 0.61344 0.502792
746 1 0.668853 0.614622 0.502792
747 1 0.668853 0.616985 0.502792
748 1 0.6709 0.618167 0.502792
749 1 0.674993 0.61344 0.502792
750 1 0.672947 0.614622 0.502792
751 1 0.672947 0.616985 0.502792
752 1 0.709787 0.751695 0.508375
753 1 0.679087 0.61344 0.502792
754 1 0.67704 0.614622 0.502792
755 1 0.67704 0.616985 0.502792
756 1 0.679087 0.618167 0.502792
757 1 0.68318 0.61344 0.502792
758 1 0.681134 0.614622 0.502792
759 1 0.681134 0.616985 0.502792
760 1 0.68318 0.618167 0.502792
761 1 0.687274 0.61344 0.502792
762 1 0.685227 0.614622 0.502792
763 1 0.685227 0.616985 0.502792
764 1 0.687274 0.618167 0.502792
765 1 0.691367 0.61344 0.502792
766 1 0.68932 0.614622 0.502792
767 1 0.68932 0.616985 0.502792
768 1 0.691367 0.618167 0.502792
769 1 0.69546 0.61344 0.502792
770 1 0.693414 0.614622 0.502792
771 1 0.693414 0.616985 0.502792
772 1 0.69546 0.618167 0.502792
773 1 0.699554 0.61344 0.502792
774 1 0.697507 0.614622 0.502792
775 1 0.697507 0.616985 0.502792
776 1 0.699554 0.618167 0.502792
777 1 0.703647 0.61344 0.502792
778 1 0.701601 0.614622 0.502792
779 1 0.701601 0.616985 0.502792
780 1 0.703647 0.618167 0.502792
781 1 0.707741 0.61344 0.502792
782 1 0.705694 0.614622 0.502792
783 1 0.705694 0.616985 0.502792
784 1 0.707741 0.618167 0.502792
785 1 0.711834 0.61344 0.502792
786 1 0.709787 0.614622 0.502792
787 1 0.709787 0.616985 0.502792
788 1 0.711834 0.618167 0.502792
789 1 0.715928 0.61344 0.502792
790 1 0.713881 0.614622 0.502792
791 1 0.713881 0.616985 0.502792
792 1 0.715928 0.618167 0.502792
793 1 0.720021 0.61344 0.502792
794 1 0.717974 0.614622 0.502792
795 1 0.717974 0.616985 0.502792
796 1 0.720021 0.618167 0.502792
797 1 0.724114 0.61344 0.502792
798 1 0.722068 0.614622 0.502792
799 1 0.722068 0.616985 0.502792
800 1 0.724114 0.618167 0.502792
801 1 0.728208 0.61344 0.502792
802 1 0.726161 0.614622 0.502792
803 1 0.711834 0.750513 0.508375
804 1 0.728208 0.618167 0.502792
805 1 0.732301 0.61344 0.502792
806 1 0.730255 0.614622 0.502792
807 1 0.730255 0.616985 0.502792
808 1 0.732301 0.618167 0.502792
809 1 0.736395 0.61344 0.502792
810 1 0.734348 0.614622 0.502792
811 1 0.734348 0.616985 0.502792
812 1 0.736395 0.618167 0.502792
813 1 0.740488 0.61344 0.502792
814 1 0.738441 0.614622 0.502792
815 1 0.738441 0.616985 0.502792
816 1 0.740488 0.618167 0.502792
817 1 0.744581 0.61344 0.502792
818 1 0.742535 0.614622 0.502792
819 1 0.742535 0.616985 0.502792
820 1 0.744581 0.618167 0.502792
821 1 0.580845 0.62053 0.502792
822 1 0.578798 0.621712 0.502792
823 1 0.578798 0.624075 0.502792
824 1 0.580845 0.625257 0.502792
825 1 0.584938 0.62053 0.502792
826 1 0.582892 0.621712 0.502792
827 1 0.582892 0.624075 0.502792
828 1 0.584938 0.625257 0.502792
829 1 0.589032 0.62053 0.502792
830 1 0.586985 0.621712 0.502792
831 1 0.586985 0.624075 0.502792
832 1 0.589032 0.625257 0.502792
833 1 0.593125 0.62053 0.502792
834 1 0.591078 0.621712 0.502792
835 1 0.591078 0.624075 0.502792
836 1 0.593125 0.625257 0.502792
837 1 0.597219 0.62053 0.502792
838 1 0.595172 0.621712 0.502792
839 1 0.595172 0.624075 0.502792
840 1 0.597219 0.625257 0.502792
841 1 0.601312 0.62053 0.502792
842 1 0.599265 0.621712 0.502792
843 1 0.599265 0.624075 0.502792
844 1 0.601312 0.625257 0.502792
845 1 0.605405 0.62053 0.502792
846 1 0.603359 0.621712 0.502792
847 1 0.603359 0.624075 0.502792
848 1 0.605405 0.625257 0.502792
849 1 0.609499 0.62053 0.502792
850 1 0.707741 0.75524 0.508375
851 1 0.607452 0.624075 0.502792
852 1 0.609499 0.625257 0.502792
853 1 0.613592 0.62053 0.502792
854 1 0.611546 0.621712 0.502792
855 1 0.611546 0.624075 0.502792
856 1 0.613592 0.625257 0.502792
857 1 0.617686 0.62053 0.502792
858 1 0.705694 0.754058 0.508375
859 1 0.615639 0.624075 0.502792
860 1 0.617686 0.625257 0.502792
861 1 0.621779 0.62053 0.502792
862 1 0.619732 0.621712 0.502792
863 1 0.619732 0.624075 0.502792
864 1 0.621779 0.625257 0.502792
865 1 0.625872 0.62053 0.502792
866 1 0.623826 0.621712 0.502792
867 1 0.623826 0.624075 0.502792
868 1 0.625872 0.625257 0.502792
869 1 0.629966 0.62053 0.502792
870 1 0.705694 0.751695 0.508375
871 1 0.627919 0.624075 0.502792
872 1 0.629966 0.625257 0.502792
873 1 0.634059 0.62053 0.502792
874 1 0.632013 0.621712 0.502792
875 1 0.632013 0.624075 0.502792
876 1 0.634059 0.625257 0.502792
877 1 0.638153 0.62053 0.502792
878 1 0.636106 0.621712 0.502792
879 1 0.636106 0.624075 0.502792
880 1 0.638153 0.625257 0.502792
881 1 0.642246 0.62053 0.502792
882 1 0.640199 0.621712 0.502792
883 1 0.707741 0.750513 0.508375
884 1 0.642246 0.625257 0.502792
885 1 0.64634 0.62053 0.502792
886 1 0.703647 0.75524 0.508375
887 1 0.644293 0.624075 0.502792
888 1 0.64634 0.625257 0.502792
889 1 0.650433 0.62053 0.502792
890 1 0.648386 0.621712 0.502792
891 1 0.701601 0.754058 0.508375
892 1 0.650433 0.625257 0.502792
893 1 0.654526 0.62053 0.502792
894 1 0.65248 0.621712 0.502792
895 1 0.65248 0.624075 0.502792
896 1 0.654526 0.625257 0.502792
897 1 0.65862 0.62053 0.502792
898 1 0.656573 0.621712 0.502792
899 1 0.656573 0.624075 0.502792
900 1 0.701601 0.751695 0.508375
901 1 0.662713 0.62053 0.502792
902 1 0.660666 0.621712 0.502792
903 1 0.660666 0.624075 0.502792
904 1 0.662713 0.625257 0.502792
905 1 0.666807 0.62053 0.502792
906 1 0.66476 0.621712 0.502792
907 1 0.66476 0.624075 0.502792
908 1 0.666807 0.625257 0.502792
909 1 0.6709 0.62053 0.502792
910 1 0.668853 0.621712 0.502792
911 1 0.668853 0.624075 0.502792
912 1 0.6709 0.625257 0.502792
913 1 0.674993 0.62053 0.502792
914 1 0.672947 0.621712 0.502792
915 1 0.672947 0.624075 0.502792