LAMMPS (29 Aug 2024 - Update 2)
  using 20 OpenMP thread(s) per MPI task
variable T equal 1673.15       # Target temperature in K
variable dt equal 0.5      # Timestep in fs
variable steps_per_restart equal 1000000
variable total_steps equal 5000000

units real
atom_style charge
boundary p p f  # periodic in x and y, fixed in z

# Read graphene structure (carbon only)
read_data graphene_mini.data
Reading data file ...
  orthogonal box = (0.0672 0.06 -50) to (44.28 42.6 50)
  1 by 1 by 1 MPI processor grid
  reading atoms ...
  1440 atoms
  read_data CPU = 0.008 seconds

# ReaxFF potential
pair_style reaxff NULL safezone 3.0 mincap 150
pair_coeff * * ffield.reax.FC.txt C F
Reading potential file ffield.reax.FC.txt with DATE: 2013-06-28
WARNING: Changed valency_val to valency_boc for X (src/REAXFF/reaxff_ffield.cpp:300)

# Define groups
group graphene type 1
1440 atoms in group graphene

# Charge equilibration
fix qeq all qeq/reaxff 100 0.0 10.0 1.0e-6 reaxff

# Prevent atoms from flying out of z bounds
fix wall all wall/reflect zlo EDGE zhi EDGE

# Temperature monitoring
compute tgraphene graphene temp

# ----------------------------
# Relaxation Phase
# ----------------------------
fix boxrelax all box/relax x 0.0 y 0.0 vmax 0.001
minimize 1.0e-6 1.0e-9 1000 10000

CITE-CITE-CITE-CITE-CITE-CITE-CITE-CITE-CITE-CITE-CITE-CITE-CITE

Your simulation uses code contributions which should be cited:

- pair reaxff command: doi:10.1016/j.parco.2011.08.005

@Article{Aktulga12,
 author = {H. M. Aktulga and J. C. Fogarty and S. A. Pandit and A. Y. Grama},
 title = {Parallel Reactive Molecular Dynamics: {N}umerical Methods and Algorithmic Techniques},
 journal = {Parallel Computing},
 year =    2012,
 volume =  38,
 number =  {4--5},
 pages =   {245--259}
}

- fix qeq/reaxff command: doi:10.1016/j.parco.2011.08.005

@Article{Aktulga12,
 author = {H. M. Aktulga and J. C. Fogarty and S. A. Pandit and A. Y. Grama},
 title = {Parallel Reactive Molecular Dynamics: {N}umerical Methods and Algorithmic Techniques},
 journal = {Parallel Computing},
 year =    2012,
 volume =  38,
 pages =   {245--259}
}

CITE-CITE-CITE-CITE-CITE-CITE-CITE-CITE-CITE-CITE-CITE-CITE-CITE

Neighbor list info ...
  update: every = 1 steps, delay = 0 steps, check = yes
  max neighbors/atom: 2000, page size: 100000
  master list distance cutoff = 12
  ghost atom cutoff = 12
  binsize = 6, bins = 8 8 17
  2 neighbor lists, perpetual/occasional/extra = 2 0 0
  (1) pair reaxff, perpetual
      attributes: half, newton off, ghost
      pair build: half/bin/ghost/newtoff
      stencil: full/ghost/bin/3d
      bin: standard
  (2) fix qeq/reaxff, perpetual, copy from (1)
      attributes: half, newton off
      pair build: copy
      stencil: none
      bin: none
WARNING: Energy due to 3 extra global DOFs will be included in minimizer energies
 (src/min.cpp:219)
Per MPI rank memory allocation (min/avg/max) = 161.1 | 161.1 | 161.1 Mbytes
   Step          Temp          E_pair         E_mol          TotEng         Press          Volume    
         0   0             -254657.85      0             -254657.85      97058.358      188081.25    
        13   0             -261891.62      0             -261891.62     -377.55532      192093.58    
Loop time of 1.19366 on 20 procs for 13 steps with 1440 atoms

704.6% CPU use with 1 MPI tasks x 20 OpenMP threads

Minimization stats:
  Stopping criterion = energy tolerance
  Energy initial, next-to-last, final = 
     -254657.847095546  -261891.586268926   -261891.62225262
  Force two-norm initial, final = 566410.4 660.05649
  Force max component initial, final = 400581.5 499.06258
  Final line search alpha, max atom move = 5.4496116e-07 0.00027196972
  Iterations, force evaluations = 13 16

MPI task timing breakdown:
Section |  min time  |  avg time  |  max time  |%varavg| %total
---------------------------------------------------------------
Pair    | 0.89111    | 0.89111    | 0.89111    |   0.0 | 74.65
Neigh   | 0          | 0          | 0          |   0.0 |  0.00
Comm    | 0.00017336 | 0.00017336 | 0.00017336 |   0.0 |  0.01
Output  | 0          | 0          | 0          |   0.0 |  0.00
Modify  | 3.6e-06    | 3.6e-06    | 3.6e-06    |   0.0 |  0.00
Other   |            | 0.3024     |            |       | 25.33

Nlocal:           1440 ave        1440 max        1440 min
Histogram: 1 0 0 0 0 0 0 0 0 0
Nghost:           1997 ave        1997 max        1997 min
Histogram: 1 0 0 0 0 0 0 0 0 0
Neighs:         287084 ave      287084 max      287084 min
Histogram: 1 0 0 0 0 0 0 0 0 0

Total # of neighbors = 287084
Ave neighs/atom = 199.36389
Neighbor list builds = 0
Dangerous builds = 0
unfix boxrelax

# Add F atoms
region above_graphene block 1 43 1 41 8 49 units box
region below_graphene block 1 43 1 41 -49 -8 units box
create_atoms 2 random 1440 12345 above_graphene overlap 1.5
Created 1440 atoms
  using lattice units in orthogonal box = (-0.16726735 -0.16576151 -50) to (44.514467 42.825762 50)
  create_atoms CPU = 0.032 seconds
create_atoms 2 random 1440 67890 below_graphene overlap 1.5
Created 1440 atoms
  using lattice units in orthogonal box = (-0.16726735 -0.16576151 -50) to (44.514467 42.825762 50)
  create_atoms CPU = 0.065 seconds
group gas type 2
2880 atoms in group gas

compute tgas gas temp

velocity all create ${T} 4928459 mom yes rot yes dist gaussian
velocity all create 1673.15 4928459 mom yes rot yes dist gaussian

# Soft start: Langevin thermostat + NVE
fix pre_relax all nve
fix temp_relax all langevin ${T} ${T} 100.0 123456
fix temp_relax all langevin 1673.15 ${T} 100.0 123456
fix temp_relax all langevin 1673.15 1673.15 100.0 123456
thermo 50
timestep ${dt}
timestep 0.5
run 3000
Per MPI rank memory allocation (min/avg/max) = 307.8 | 307.8 | 307.8 Mbytes
   Step          Temp          E_pair         E_mol          TotEng         Press     
        13   1673.15       -248215.24      0             -226674.91      5623.1671    
        50   2400.4849     -258838.28      0             -227934.15      24928.885    
       100   2311.3793     -262070.83      0             -232313.86      20234.368    
       150   2128.7277     -263476.35      0             -236070.86      17063.633    
       200   1980.198      -263961.82      0             -238468.51      16721.275    
       250   1888.4566     -264849.28      0             -240537.07      15971.972    
       300   1826.5871     -265299.4       0             -241783.7       14317.533    
       350   1804.5876     -265858.7       0             -242626.23      14121.346    
       400   1728.8784     -265520.76      0             -243262.97      11247.773    
       450   1719.7701     -265815.35      0             -243674.83      11695.328    
       500   1734.4092     -266347.01      0             -244018.02      11838.511    
       550   1727.6791     -266790.75      0             -244548.4       10785.41     
       600   1667.5886     -266681.78      0             -245213.04      7958.509     
       650   1673.8657     -266898.47      0             -245348.92      9241.9212    
       700   1677.9747     -267013.87      0             -245411.43      10897.881    
       750   1696.3433     -266942.89      0             -245103.96      9582.7863    
       800   1696.6071     -267261.25      0             -245418.92      8367.5519    
       850   1654.8475     -267211.81      0             -245907.11      8720.2698    
       900   1679.8003     -267283.95      0             -245658.01      10752.321    
       950   1665.0629     -267688.75      0             -246252.54      12330.835    
      1000   1690.6361     -267584.67      0             -245819.22      10390.475    
      1050   1679.2291     -267643.27      0             -246024.68      10841.662    
      1100   1665.3956     -267846.37      0             -246405.87      8989.1653    
      1150   1651.1583     -267808.13      0             -246550.93      10115.028    
      1200   1678.9131     -268202.54      0             -246588.02      9318.9652    
      1250   1675.6606     -268194.3       0             -246621.65      8879.1235    
      1300   1696.0227     -268395.83      0             -246561.03      8757.6201    
      1350   1695.2598     -268510.36      0             -246685.38      7294.0785    
      1400   1712.396      -268581.53      0             -246535.94      7734.9034    
      1450   1697.9212     -268636.28      0             -246777.05      6507.9061    
      1500   1681.0658     -268586.12      0             -246943.88      9277.0942    
      1550   1657.8775     -268816.78      0             -247473.07      7683.9458    
      1600   1692.6577     -269076.53      0             -247285.05      8877.6006    
      1650   1689.6815     -268917.71      0             -247164.55      6825.6436    
      1700   1693.77       -269278.76      0             -247472.96      7486.1454    
      1750   1681.2153     -269345.09      0             -247700.93      7530.2919    
      1800   1697.7688     -269505.21      0             -247647.93      7178.661     
      1850   1660.0126     -269163.65      0             -247792.45      7395.5969    
      1900   1688.142      -269346.49      0             -247613.15      6111.8694    
      1950   1685.4347     -269611.3       0             -247912.81      5915.2934    
      2000   1702.5369     -269851.22      0             -247932.56      6837.8947    
      2050   1699.7799     -269801.28      0             -247918.11      7688.3983    
      2100   1661.8784     -269696.67      0             -248301.45      7487.944     
      2150   1723.6304     -269764.88      0             -247574.66      5843.6463    
      2200   1743.3467     -269898.81      0             -247454.75      5613.7518    
      2250   1720.6576     -269895.81      0             -247743.86      4609.4987    
      2300   1697.0318     -270009.09      0             -248161.3       5086.6296    
      2350   1686.1496     -270114.87      0             -248407.18      4577.6135    
      2400   1688.0112     -270288.54      0             -248556.88      4645.3556    
      2450   1698.5821     -270326.96      0             -248459.21      6438.4996    
      2500   1701.6613     -270342.93      0             -248435.54      5921.6202    
      2550   1695.5504     -270354.81      0             -248526.09      8651.9091    
      2600   1702.5455     -270474.16      0             -248555.39      4561.145     
      2650   1743.6662     -271147.24      0             -248699.08      3931.7994    
      2700   1718.706      -270972.52      0             -248845.7       3359.0409    
      2750   1720.1078     -271107.16      0             -248962.28      4788.3707    
      2800   1680.08       -270943.65      0             -249314.1       3571.5571    
      2850   1668.4071     -271284.05      0             -249804.78      5263.0413    
      2900   1664.6007     -271021.57      0             -249591.3       5857.3879    
      2950   1670.4959     -271404.17      0             -249898         4775.7744    
      3000   1699.9009     -271538.98      0             -249654.26      3769.583     
      3013   1670.1093     -271551.26      0             -250050.07      3238.0534    
Loop time of 252.933 on 20 procs for 3000 steps with 4320 atoms

Performance: 0.512 ns/day, 46.840 hours/ns, 11.861 timesteps/s, 51.239 katom-step/s
103.1% CPU use with 1 MPI tasks x 20 OpenMP threads

MPI task timing breakdown:
Section |  min time  |  avg time  |  max time  |%varavg| %total
---------------------------------------------------------------
Pair    | 247.09     | 247.09     | 247.09     |   0.0 | 97.69
Neigh   | 1.2393     | 1.2393     | 1.2393     |   0.0 |  0.49
Comm    | 0.096489   | 0.096489   | 0.096489   |   0.0 |  0.04
Output  | 0.003014   | 0.003014   | 0.003014   |   0.0 |  0.00
Modify  | 4.2879     | 4.2879     | 4.2879     |   0.0 |  1.70
Other   |            | 0.2213     |            |       |  0.09

Nlocal:           4320 ave        4320 max        4320 min
Histogram: 1 0 0 0 0 0 0 0 0 0
Nghost:           5823 ave        5823 max        5823 min
Histogram: 1 0 0 0 0 0 0 0 0 0
Neighs:         549488 ave      549488 max      549488 min
Histogram: 1 0 0 0 0 0 0 0 0 0

Total # of neighbors = 549488
Ave neighs/atom = 127.1963
Neighbor list builds = 54
Dangerous builds = 0
unfix pre_relax
unfix temp_relax

# ----------------------------
# Main Simulation Phase
# ----------------------------
fix nvt_sim all nvt temp ${T} ${T} 50
fix nvt_sim all nvt temp 1673.15 ${T} 50
fix nvt_sim all nvt temp 1673.15 1673.15 50

# ReaxFF bond info
fix reax_bonds all reaxff/bonds 100 bonds.reax

# Restart file every 1 million timesteps
restart ${steps_per_restart} restart.*.bin
restart 1000000 restart.*.bin

# Dump less frequently to reduce file size
dump mydmp all custom 10000 dump.lammpstrj id type x y z q
thermo 1000

run ${total_steps}
run 5000000
Per MPI rank memory allocation (min/avg/max) = 314.6 | 314.6 | 314.6 Mbytes
   Step          Temp          E_pair         E_mol          TotEng         Press     
      3013   1670.1093     -271551.26      0             -250050.07      3238.0534    
      4000   1695.137      -272929.39      0             -251106         2373.9673    
      5000   1702.9359     -274765.29      0             -252841.49      3039.4883    
      6000   1647.7184     -276794.91      0             -255581.98      846.59264    
      7000   1655.5305     -278212.93      0             -256899.43     -3476.8095    
      8000   1693.5697     -279183.75      0             -257380.53     -129.25596    
      9000   1722.9184     -279932.45      0             -257751.39     -759.03686    
     10000   1669.9999     -280127.14      0             -258627.36     -3914.4242    
     11000   1686.7628     -280270.49      0             -258554.9      -3306.4277    
     12000   1664.5773     -281085.48      0             -259655.51     -3641.5107    
     13000   1680.2621     -281616.33      0             -259984.43     -2446.7332    
     14000   1648.6414     -281800.13      0             -260575.33     -2437.5308    
     15000   1686.9999     -281921.88      0             -260203.24     -4859.3461    
     16000   1640.8009     -281953.88      0             -260830.01     -3717.1748    
     17000   1680.4952     -282783.47      0             -261148.58     -5163.189     
     18000   1679.3699     -283112.67      0             -261492.27     -5591.6906    
     19000   1643.6353     -283228.5       0             -262068.14     -6988.5978    
     20000   1661.9329     -283497.73      0             -262101.81     -2888.8113    
     21000   1685.0049     -283340.82      0             -261647.87     -4690.7095    
     22000   1673.6724     -283808.47      0             -262261.41     -1795.1415    
     23000   1667.4506     -283452.21      0             -261985.25     -3664.1791    
     24000   1684.1151     -283944.87      0             -262263.37     -8118.9428    
     25000   1665.2154     -283992.29      0             -262554.11     -3352.6984    
     26000   1634.3447     -284167.86      0             -263127.11     -3125.8903    
     27000   1700.3575     -284078.11      0             -262187.51     -2906.1451    
     28000   1653.7407     -284043.2       0             -262752.75     -5349.4784    
     29000   1656.1365     -284333.01      0             -263011.71     -2784.9683    
     30000   1682.063      -283694.93      0             -262039.85     -4077.9328    
     31000   1668.5507     -284303.72      0             -262822.6      -4313.2254    
     32000   1650.7345     -284147.16      0             -262895.41     -4073.4264    
     33000   1731.6622     -285016.22      0             -262722.59     -5335.5534    
     34000   1675.7057     -284694.16      0             -263120.92     -6022.5703    
     35000   1676.4388     -284575.31      0             -262992.64     -4699.9142    
     36000   1680.1092     -284844.06      0             -263214.13     -6347.9645    
     37000   1702.8966     -285200.9       0             -263277.61     -4418.9664    
     38000   1678          -284761.4       0             -263158.63     -4252.4824    
     39000   1667.6164     -284712.12      0             -263243.02     -6337.243     
     40000   1670.703      -285064.05      0             -263555.22     -2956.2637    
     41000   1669.7733     -284903.86      0             -263407        -2251.2906    
     42000   1664.0861     -284986.3       0             -263562.66     -4790.8435    
     43000   1673.1053     -285373.01      0             -263833.25     -4434.2668    
     44000   1700.6402     -285477.56      0             -263583.31     -4546.2477    
     45000   1670.8957     -285283.71      0             -263772.4      -5485.2593    
     46000   1684.7724     -285339.9       0             -263649.94     -7587.2185    
     47000   1699.5116     -285754.31      0             -263874.6      -1124.8712    
     48000   1659.3191     -285366.63      0             -264004.35     -1730.3775    
     49000   1662.9367     -285819.45      0             -264410.61     -4946.1239    
     50000   1702.8535     -285768.68      0             -263845.94     -6542.1421    
     51000   1711.0984     -286056.01      0             -264027.13     -1997.1038    
     52000   1633.2134     -285323.56      0             -264297.37     -5106.5031    
     53000   1679.6149     -285699.23      0             -264075.66     -5128.8217    
     54000   1663.421      -286018.6       0             -264603.52     -8728.0619    
     55000   1630.869      -285833.25      0             -264837.25     -2754.2334    
     56000   1679.3625     -286297.81      0             -264677.5      -4335.1078    
     57000   1629.6085     -285700.63      0             -264720.85     -8428.3616    
     58000   1653.9385     -285913.98      0             -264620.98     -5828.54      
     59000   1661.482      -285364.31      0             -263974.2      -2978.755     
     60000   1694.7959     -285612.04      0             -263793.04     -3460.8791    
     61000   1655.5417     -285482.22      0             -264168.58     -2206.0828    
     62000   1631.7761     -285067.47      0             -264059.79     -1986.0164    
     63000   1677.1268     -284710.68      0             -263119.15     -421.8176     
     64000   1690.9088     -285706.22      0             -263937.26     -3220.9319    
     65000   1656.773      -285485.88      0             -264156.39     -3654.842     
     66000   1700.5901     -285220.6       0             -263327        -4172.2394    
     67000   1670.4873     -285566.58      0             -264060.52     -7434.0876    
     68000   1628.08       -285551.15      0             -264591.05     -6213.6187    
     69000   1690.7228     -285247.01      0             -263480.44     -5362.8556    
     70000   1702.4018     -285516.77      0             -263599.85     -5279.2908    
     71000   1698.1555     -285695.16      0             -263832.9      -3557.6543    
     72000   1647.556      -285335.66      0             -264124.83     -3024.1947    
     73000   1691.5768     -284511.44      0             -262733.88     -3744.5505    
     74000   1649.1475     -284258.67      0             -263027.35     -1681.0495    
     75000   1685.2262     -283282.8       0             -261587        -4274.4387    
     76000   1710.9109     -281862.6       0             -259836.13     -4640.1061    
     77000   1705.9389     -282187.28      0             -260224.82     -3958.4952    
     78000   1706.3174     -279191.15      0             -257223.82     -2931.3324    
     79000   1765.6539     -277317.12      0             -254585.88      999.28362    
     80000   1762.4953     -273619.59      0             -250929.01     -1020.9103    
     81000   1800.7251     -272785.38      0             -249602.63      3034.504     
     82000   1763.8874     -271780.97      0             -249072.48      824.6371     
     83000   1832.6919     -273389.81      0             -249795.52      1301.7267    
     84000   1843.91       -275425.54      0             -251686.82     -3033.1759    
     85000   1805.0226     -279174.82      0             -255936.75      1205.2494    
     86000   1773.5689     -280606.6       0             -257773.46     -1839.4917    
     87000   1769.1155     -283516.92      0             -260741.12      2512.0167    
     88000   1755.9023     -284203.3       0             -261597.61      511.07353    
     89000   1733.0211     -286652.95      0             -264341.83      5092.4369    
     90000   1704.4466     -291361.45      0             -269418.2      -751.38445    
     91000   1740.4235     -292379.58      0             -269973.16      3196.5562    
     92000   1713.7431     -295571.73      0             -273508.8       344.20374    
     93000   1762.3777     -297938.1       0             -275249.04     -1488.9902    
     94000   1763.805      -301568.55      0             -278861.11      1960.6624    
     95000   1824.9557     -304348.19      0             -280853.49      1871.4622    
     96000   1736.3667     -303911.05      0             -281556.86      51.921976    
     97000   1724.2791     -303803.73      0             -281605.15      699.66182    
     98000   1847.2465     -303545.21      0             -279763.54      2131.9046    
     99000   1779.0499     -301559.17      0             -278655.47      1332.1013    
    100000   1748.0269     -299626.26      0             -277121.96     -1485.9979    
    101000   1864.013      -289341.71      0             -265344.18      243.90031    
    102000   1928.1618     -287918.02      0             -263094.63      1517.922     
    103000   1897.4594     -283026.07      0             -258597.96      778.06943    
    104000   1718.014      -281238.76      0             -259120.85      1687.583     
    105000   1792.4183     -283723.33      0             -260647.52      2566.9437    
    106000   1754.0772     -286297.33      0             -263715.14      1126.5133    
    107000   1720.9411     -285996.45      0             -263840.85      2398.4039    
    108000   1718.8865     -287231.17      0             -265102.02      2962.1294    
    109000   1709.3936     -287403.13      0             -265396.2       221.49877    
    110000   1744.4715     -291261.89      0             -268803.36      867.50944    
    111000   1802.2826     -294404.15      0             -271201.35      3061.821     
    112000   1701.832      -295847.01      0             -273937.42      1569.1472    
    113000   1794.011      -298381.5       0             -275285.19      3475.1662    
    114000   1750.0848     -301154.12      0             -278623.32      1783.0786    
    115000   1735.2512     -301843.14      0             -279503.31      1904.6387    
    116000   1688.4336     -302374.37      0             -280637.28      2330.1071    
    117000   1783.6451     -304433.58      0             -281470.72      3144.8564    
    118000   1777.0296     -305856.9       0             -282979.21      925.83978    
    119000   1771.0244     -305565.66      0             -282765.28      2538.1386    
    120000   1770.4315     -307192.78      0             -284400.03      3071.8266    
    121000   1709.9782     -306495.08      0             -284480.62      3401.561     
    122000   1737.4976     -308981.45      0             -286612.7       1748.2348    
    123000   1769.2473     -310247.31      0             -287469.81      3395.7499    
    124000   1664.0844     -308862.83      0             -287439.21      1696.5091    
    125000   1756.9822     -309611.78      0             -286992.18      4785.5279    
    126000   1681.4108     -310966.02      0             -289319.34      816.47761    
    127000   1814.8695     -314812.15      0             -291447.31      1525.9978    
    128000   1696.1384     -313355.37      0             -291519.08      4802.6684    
    129000   1796.3952     -315361.24      0             -292234.24      5336.0414    
    130000   1758.9648     -315552.12      0             -292907         3336.0185    
    131000   1784.9925     -317848.37      0             -294868.17      2068.5962    
    132000   1730.6887     -319757.37      0             -297476.28      2481.4736    
    133000   1740.2403     -321471.21      0             -299067.16      3734.7432    
    134000   1677.4231     -321307.04      0             -299711.7       1790.52      
    135000   1746.6176     -323509.94      0             -301023.78      3591.8762    
    136000   1737.1108     -324694         0             -302330.23      4159.3415    
    137000   1704.1652     -325982.27      0             -304042.65      1765.9405    
    138000   1761.1385     -327109.11      0             -304436         3394.3269    
    139000   1750.2597     -328876.58      0             -306343.53      2855.5817    
    140000   1769.541      -329274.85      0             -306493.57      2223.5581    
    141000   1764.6906     -331769.79      0             -309050.96      3563.6801    
    142000   1806.4925     -334280.89      0             -311023.9       957.09217    
    143000   1743.6135     -334085.82      0             -311638.34      2615.0221    
    144000   1723.2755     -336597.18      0             -314411.53      2394.0734    
    145000   1758.6158     -339109.09      0             -316468.46      2711.1954    
    146000   1759.9548     -339309.38      0             -316651.51      1789.2548    
    147000   1637.2891     -337905.31      0             -316826.66      1974.4646    
    148000   1808.7583     -340709.69      0             -317423.52      2643.0865    
    149000   1765.0601     -341500.26      0             -318776.67      2588.1142    
    150000   1742.9514     -341362.61      0             -318923.65      2067.7673    
    151000   1806.3351     -344592.25      0             -321337.28      2560.0931    
    152000   1724.337      -344859.27      0             -322659.95      3057.1155    
    153000   1729.7948     -345888.13      0             -323618.54      2595.5488    
    154000   1754.7125     -346171.73      0             -323581.35      2853.3862    
    155000   1735.1545     -345048.06      0             -322709.48      1444.3538    
    156000   1814.2785     -344930.22      0             -321572.98      1635.811     
    157000   1734.8338     -346368.8       0             -324034.35      2872.9768    
    158000   1718.5371     -346653.73      0             -324529.08      2576.978     
    159000   1822.0253     -348197.99      0             -324741.02      3511.6646    
    160000   1726.6559     -348856.36      0             -326627.19      3719.9183    
    161000   1686.4924     -349995.89      0             -328283.78      2227.5236    
    162000   1767.946      -352639.29      0             -329878.54      4037.4789    
    163000   1739.3797     -353374.84      0             -330981.86      2809.8871    
    164000   1780.9131     -353961.01      0             -331033.32      3961.2366    
    165000   1705.8678     -354879.02      0             -332917.47      2060.8077    
    166000   1751.1234     -353593.61      0             -331049.44      2867.6911    
    167000   1752.3053     -354729.79      0             -332170.41      1455.4092    
    168000   1669.7038     -354167.52      0             -332671.55      1348.7121    
    169000   1761.7662     -357111.64      0             -334430.45      2023.8554    
    170000   1770.6119     -359340.96      0             -336545.89      3115.4831    
    171000   1730.5903     -358475.86      0             -336196.03      4535.4549    
    172000   1718.2355     -357978.63      0             -335857.86      2368.2485    
    173000   1776.0815     -358302.32      0             -335436.84      3490.308     
    174000   1784.4293     -358826.79      0             -335853.84      4173.17      
    175000   1709.5646     -358375.08      0             -336365.94      3486.6876    
    176000   1803.4222     -360041.5       0             -336824.03      3519.5214    
    177000   1762.5947     -360295.81      0             -337603.95      3106.7702    
    178000   1765.8647     -362142.54      0             -339408.58      1793.3328    
    179000   1766.2552     -363016.38      0             -340277.4       4630.3524    
    180000   1729.7418     -365105.11      0             -342836.21      2212.0501    
    181000   1788.3017     -366306.56      0             -343283.75      2442.5154    
    182000   1750.4289     -366235.64      0             -343700.42      2492.7754    
    183000   1774.1623     -367698.6       0             -344857.83      2916.3585    
    184000   1835.6012     -368060.7       0             -344428.96      2290.7788    
    185000   1697.6795     -366272.67      0             -344416.54      3072.3598    
    186000   1739.7245     -369019.05      0             -346621.63      698.44464    
    187000   1770.0196     -371434.81      0             -348647.36      4309.5047    
    188000   1780.1493     -370527.2       0             -347609.34      4263.0661    
    189000   1744.9267     -371510.79      0             -349046.4       2535.6275    
    190000   1804.3971     -371389.62      0             -348159.6       3045.7045    
    191000   1760.1721     -370328.06      0             -347667.4       844.58278    
    192000   1721.1573     -371138.55      0             -348980.17      1491.6123    
    193000   1658.1262     -372404.32      0             -351057.4       2666.6923    
    194000   1652.7589     -372873.32      0             -351595.51      3186.3097    
    195000   1753.6185     -374087.71      0             -351511.41      4014.9677    
    196000   1690.0831     -376210.51      0             -354452.18      2339.8231    
    197000   1693.8433     -376382.44      0             -354575.7       961.10508    
    198000   1753.1298     -376766.74      0             -354196.73      1913.8331    
    199000   1720.2629     -376553.12      0             -354406.25      3669.5035    
    200000   1670.797      -377032.42      0             -355522.38      2881.2891    
    201000   1734.4278     -376487.28      0             -354158.05      1537.4587    
    202000   1738.8484     -378034.51      0             -355648.37      4723.6443    
    203000   1787.2565     -376479.88      0             -353470.52      3999.9819    
    204000   1755.0582     -377208.99      0             -354614.16      2322.0064    
    205000   1727.8099     -378418.29      0             -356174.26      3811.442     
    206000   1758.9835     -378204.32      0             -355558.95      3326.4985    
    207000   1748.3195     -380617.33      0             -358109.26      2545.0067    
    208000   1814.5857     -382588.42      0             -359227.23      4040.0068    
    209000   1749.7137     -381774.69      0             -359248.66      1687.0401    
    210000   1646.0933     -380132.97      0             -358940.97      5558.6006    
    211000   1697.1802     -380398.4       0             -358548.7       3044.426     
    212000   1748.6395     -383852.37      0             -361340.18      2416.9708    
    213000   1741.6959     -384093.18      0             -361670.38      639.65835    
    214000   1743.2495     -385375.38      0             -362932.58      1000.7189    
    215000   1681.3325     -385405.84      0             -363760.16      3869.626     
    216000   1745.7084     -384667.35      0             -362192.89      2784.0578    
    217000   1741.1942     -385932.93      0             -363516.59      4306.9362    
    218000   1702.8511     -385656.02      0             -363733.32      3570.3467    
    219000   1737.8132     -386789.84      0             -364417.02      1244.2072    
    220000   1759.6425     -388949.96      0             -366296.11      1509.114     
    221000   1756.8943     -389479.5       0             -366861.04      2650.4341    
    222000   1793.0179     -391886.93      0             -368803.41      3483.4362    
    223000   1747.3725     -392415.62      0             -369919.74      3394.8402    
    224000   1772.8228     -391597.4       0             -368773.87      1919.6691    
    225000   1752.7932     -392035.3       0             -369469.63      4931.6446    
    226000   1705.6446     -391860.4       0             -369901.72      1457.3355    
    227000   1722.3963     -391759.91      0             -369585.57      1434.9246    
    228000   1688.1464     -392187.81      0             -370454.42      1467.6468    
    229000   1760.2822     -392838.31      0             -370176.23      3993.9405    
    230000   1736.5819     -391761.94      0             -369404.98      3533.5201    
    231000   1744.4942     -391867.77      0             -369408.94      2437.8226    
    232000   1778.7829     -393455.08      0             -370554.82      1410.2095    
    233000   1691.5588     -391619.93      0             -369842.61      2182.6057    
    234000   1765.7148     -391316.81      0             -368584.79      4944.8148    
    235000   1709.1471     -393481.56      0             -371477.8       3779.7903    
    236000   1671.3962     -393330.41      0             -371812.66      1653.0238    
    237000   1709.1374     -394122.8       0             -372119.16      3569.9501    
    238000   1651.8123     -392287.12      0             -371021.49      2926.5232    
    239000   1756.3617     -393365.63      0             -370754.02      1688.726     
    240000   1730.3269     -393209.73      0             -370933.3       4951.0378    
    241000   1757.8281     -393347.72      0             -370717.23      1911.2326    
    242000   1761.9083     -394969.5       0             -372286.48      4503.5789    
    243000   1721.031      -396280.59      0             -374123.83      2340.3948    
    244000   1618.3925     -395072.95      0             -374237.57      1685.659     
    245000   1681.0655     -395274.3       0             -373632.06      3783.9516    
    246000   1782.2483     -396225.67      0             -373280.79      3213.0512    
    247000   1768.3127     -396164         0             -373398.53      2903.7406    
    248000   1762.1769     -395766.94      0             -373080.47      2886.6244    
    249000   1772.2353     -394603.18      0             -371787.21      1506.2436    
    250000   1661.7534     -394982.02      0             -373588.4       4192.9477    
    251000   1731.5081     -396839.93      0             -374548.29      3258.4136    
    252000   1639.5834     -395745.16      0             -374636.97      2394.4705    
    253000   1799.5227     -396378.54      0             -373211.27      3823.0047    
    254000   1693.4961     -396623.06      0             -374820.79      2981.8642    
    255000   1727.8265     -396169.18      0             -373924.94      5113.7083    
    256000   1722.4626     -397554.34      0             -375379.15      4156.6613    
    257000   1643.26       -396852.3       0             -375696.78      1006.7687    
    258000   1707.0868     -398652.49      0             -376675.25      1839.4736    
    259000   1738.3332     -399009.14      0             -376629.63      1902.1585    
    260000   1758.5598     -398351.9       0             -375712         2549.0289    
    261000   1695.3482     -399062.14      0             -377236.03      2453.1345    
    262000   1721.7814     -398398.03      0             -376231.61      3411.1569    
    263000   1765.003      -397722.41      0             -374999.56      2179.5721    
    264000   1746.1203     -397084.2       0             -374604.44      2985.6403    
    265000   1685.0566     -395979.61      0             -374285.99      2642.009     
    266000   1726.4777     -398998.24      0             -376771.36      3921.0215    
    267000   1718.6827     -398468.12      0             -376341.6       3872.4604    
    268000   1740.3833     -398135.16      0             -375729.26      3420.6542    
    269000   1644.2637     -395657.31      0             -374488.86      2878.1446    
    270000   1674.0323     -395363.35      0             -373811.66      2700.9666    
    271000   1738.3155     -398354.25      0             -375974.97      3403.319     
    272000   1739.787      -398316.3       0             -375918.07      2170.8731    
    273000   1780.2887     -397765.1       0             -374845.45      2563.1927    
    274000   1722.5266     -396142.92      0             -373966.91      3610.0913    
    275000   1740.3669     -397509.02      0             -375103.33      1589.8108    
    276000   1747.9184     -397313.16      0             -374810.25      3793.8776    
    277000   1732.2266     -396920.71      0             -374619.82      2419.3943    
    278000   1671.9058     -396254.67      0             -374730.36      3180.9545    
    279000   1721.5476     -398246.33      0             -376082.92      3876.6978    
    280000   1721.225      -397825.7       0             -375666.45      3609.6486    
    281000   1735.0955     -398541.98      0             -376204.15      3507.9525    
    282000   1660.3384     -397772.72      0             -376397.33      2284.0246    
    283000   1721.4807     -396976.9       0             -374814.35      1733.185     
    284000   1675.3687     -397184.13      0             -375615.23      4335.91      
    285000   1672.6763     -397975         0             -376440.77      4392.638     
    286000   1690.4941     -396975.29      0             -375211.67      1784.4485    
    287000   1750.8071     -398505.67      0             -375965.57      2095.385     
    288000   1675.9514     -397997.63      0             -376421.24      1880.3663    
    289000   1690.5526     -398886.17      0             -377121.8       969.70029    
    290000   1740.0073     -399159.82      0             -376758.77      3379.8673    
    291000   1792.7336     -398598.18      0             -375518.32      2808.9298    
    292000   1693.0432     -397971.24      0             -376174.8       2352.3396    
    293000   1748.8635     -399476.59      0             -376961.51      935.88255    
    294000   1673.7958     -398281.41      0             -376732.77      782.42663    
    295000   1718.6947     -398819.38      0             -376692.7       3072.0908    
    296000   1729.8389     -399426.71      0             -377156.56      2706.4355    
    297000   1708.7275     -397870.59      0             -375872.23      1699.8792    
    298000   1740.4851     -399459.33      0             -377052.12      1687.208     
    299000   1710.1957     -398289.69      0             -376272.43      3513.2896    
    300000   1740.826      -398514.11      0             -376102.51      3696.4003    
    301000   1670.0618     -398079.34      0             -376578.77      2900.344     
    302000   1758.7015     -400109.92      0             -377468.19      4687.1436    
    303000   1744.7979     -399798.54      0             -377335.81      3589.7805    
    304000   1644.8763     -398947.06      0             -377770.73      2569.294     
    305000   1698.8461     -398288.53      0             -376417.38      3059.3037    
    306000   1716.085      -399973.28      0             -377880.2       2519.1021    
    307000   1688.3712     -398470.33      0             -376734.04      3126.0712    
    308000   1688.2249     -398490.46      0             -376756.06      2396.3685    
    309000   1699.3768     -398956.51      0             -377078.53      3085.0517    
    310000   1721.6422     -397813.85      0             -375649.23      2891.9408    
    311000   1667.4475     -399340.87      0             -377873.95      1627.4572    
    312000   1732.9268     -398362.03      0             -376052.12      1051.2796    
    313000   1693.412      -397015.24      0             -375214.06      5319.3949    
    314000   1724.363      -398294.87      0             -376095.22      5007.0089    
    315000   1738.5099     -397181.66      0             -374799.88      1829.8961    
    316000   1724.2027     -397419.34      0             -375221.75      2311.1094    
    317000   1611.7239     -396673.71      0             -375924.19      2488.4548    
    318000   1728.8997     -400124.06      0             -377866         3987.4073    
    319000   1650.5122     -399264.97      0             -378016.08      2912.737     
    320000   1725.1982     -399564.08      0             -377353.68      1090.1516    
    321000   1673.5558     -399247.64      0             -377702.08      4750.8592    
    322000   1713.98       -398759.63      0             -376693.65      1150.3771    
    323000   1634.4566     -398336.55      0             -377294.36      1748.9117    
    324000   1725.8761     -397709.77      0             -375490.64      2819.9892    
    325000   1713.5013     -396911.29      0             -374851.47      3980.299     
    326000   1743.8202     -397644.43      0             -375194.29      1004.635     
    327000   1718.6645     -396475.19      0             -374348.9       3945.9958    
    328000   1707.7449     -397646.33      0             -375660.62      3922.8059    
    329000   1727.8836     -397816.39      0             -375571.41      5893.9207    
    330000   1796.7916     -400757.96      0             -377625.85      3572.5316    
    331000   1661.6328     -398702.65      0             -377310.59      2287.3567    
    332000   1749.7759     -398834.8       0             -376307.98      2447.268     
    333000   1807.7047     -399670.88      0             -376398.28      2726.398     
    334000   1699.7697     -401374.64      0             -379491.6       3269.2244    
    335000   1714.8437     -400438.33      0             -378361.22      4732.9249    
    336000   1724.3139     -401431.7       0             -379232.68      3145.5036    
    337000   1702.9345     -401711.65      0             -379787.87      1644.7548    
    338000   1713.3592     -399180.41      0             -377122.42      3850.6503    
    339000   1666.6561     -399666.26      0             -378209.53      1948.2704    
    340000   1690.6721     -398746.97      0             -376981.06      2450.2336    
    341000   1671.6479     -397317.72      0             -375796.72      4602.2334    
    342000   1713.7052     -398048.75      0             -375986.31      3387.3667    
    343000   1749.7264     -396940.95      0             -374414.77      1543.4201    
    344000   1719.3183     -398195.88      0             -376061.17      5349.3802    
    345000   1732.3204     -398941.63      0             -376639.54      3379.6771    
    346000   1669.9757     -397431.2       0             -375931.73      3471.1157    
    347000   1741.3599     -398805.22      0             -376386.75      2665.1791    
    348000   1697.3435     -397696.48      0             -375844.68      3998.9706    
    349000   1644.7112     -397687.3       0             -376513.1       1701.2142    
    350000   1705.1751     -398420.43      0             -376467.8       2212.1003    
    351000   1691.2444     -397498.06      0             -375724.78      2221.3325    
    352000   1684.508      -398245.46      0             -376558.91      2558.0712    
    353000   1665.4883     -399263.81      0             -377822.12      2065.4719    
    354000   1718.3229     -396950.72      0             -374828.82      2611.6793    
    355000   1696.6299     -397634.09      0             -375791.48      2197.6548    
    356000   1697.7027     -396994.43      0             -375138         2975.4352    
    357000   1736.678      -399002.19      0             -376643.99      2977.0133    
    358000   1704.4134     -400013.91      0             -378071.09      4422.231     
    359000   1797.7163     -400833.11      0             -377689.1       3175.8268    
    360000   1697.7622     -399544.14      0             -377686.95      1930.3471    
    361000   1732.9496     -397068.04      0             -374757.84      3036.2964    
    362000   1692.9544     -397790.1       0             -375994.8       2569.5213    
    363000   1733.9229     -397255.93      0             -374933.2       4120.3466    
    364000   1706.4343     -396786.82      0             -374817.99      1829.8292    
    365000   1663.9927     -397435.18      0             -376012.74      3607.5021    
    366000   1730.264      -399027.63      0             -376752.01      3412.434     
    367000   1698.0991     -397949.09      0             -376087.56      1932.122     
    368000   1680.4722     -398085.76      0             -376451.16      4179.6187    
    369000   1634.0171     -397701.84      0             -376665.31      3451.8529    
    370000   1713.8027     -399394.9       0             -377331.2       2624.7951    
    371000   1718.1293     -398865.16      0             -376745.76      2566.9454    
    372000   1756.4301     -398721.21      0             -376108.72      4053.9403    
    373000   1655.294      -397967.82      0             -376657.37      1717.9896    
    374000   1722.8561     -399686.56      0             -377506.31      1648.0584    
    375000   1683.5739     -399473.19      0             -377798.66      4038.9823    
    376000   1782.5304     -400772.62      0             -377824.11      2860.0198    
    377000   1690.0146     -399755.98      0             -377998.53      3092.0657    
    378000   1741.7798     -400896.01      0             -378472.13      5569.9567    
    379000   1679.9652     -400763.63      0             -379135.55      3864.9129    
    380000   1694.4575     -399890.9       0             -378076.25      4145.0196    
    381000   1760.3471     -400101.46      0             -377438.55      4144.0046    
    382000   1723.7925     -400095.93      0             -377903.62      4202.9405    
    383000   1741.7744     -399735.6       0             -377311.79      3929.6213    
    384000   1699.7472     -399183.25      0             -377300.5       3603.0336    
    385000   1707.0811     -402231.26      0             -380254.1       2002.8033    
    386000   1685.6173     -400047.98      0             -378347.14      2951.7417    
    387000   1751.3477     -400472.53      0             -377925.47      1840.2496    
    388000   1732.8922     -402196.49      0             -379887.03      3376.9461    
    389000   1687.7881     -400902.74      0             -379173.96      3100.3014    
    390000   1715.7605     -401468.2       0             -379379.29      4279.3694    
    391000   1749.5362     -402294.94      0             -379771.2       1935.6375    
    392000   1730.5375     -401397.24      0             -379118.1       3842.7997    
    393000   1735.0031     -401005.26      0             -378668.63      2530.2415    
    394000   1745.8887     -402260.74      0             -379783.97      1177.9149    
    395000   1740.256      -402185.9       0             -379781.64      6410.8454    
    396000   1704.8181     -401310.15      0             -379362.12      2848.1702    
    397000   1740.8535     -401464.25      0             -379052.29      4267.1774    
    398000   1667.9273     -400138.58      0             -378665.49      1982.9903    
    399000   1723.9404     -401456.74      0             -379262.53      2610.767     
    400000   1759.9916     -400334.63      0             -377676.29      3255.2088    
    401000   1707.9399     -399876         0             -377887.78      4386.0697    
    402000   1741.6694     -398747.19      0             -376324.73      3198.7199    
    403000   1717.7586     -397962.48      0             -375847.85      2824.7012    
    404000   1709.9506     -397733.48      0             -375719.37      2781.8506    
    405000   1744.003      -397526.57      0             -375074.07      3715.9996    
    406000   1730.1618     -398001.83      0             -375727.52      2765.9848    
    407000   1751.326      -397793.95      0             -375247.17      1971.6691    
    408000   1745.2783     -396892.35      0             -374423.43      3883.2812    
    409000   1732.5042     -397277.98      0             -374973.52      2267.652     
    410000   1714.6388     -397879.3       0             -375804.84      1011.3543    
    411000   1751.0757     -398675.4       0             -376131.84      3599.9302    
    412000   1716.5266     -397855.63      0             -375756.86      2028.1752    
    413000   1689.2616     -398537.09      0             -376789.34      1975.2269    
    414000   1724.4088     -398755.13      0             -376554.89      705.89094    
    415000   1709.7318     -398006.14      0             -375994.85      4294.1864    
    416000   1685.1206     -398666.72      0             -376972.28      3939.3013    
    417000   1692.4965     -399694.94      0             -377905.54      3551.9738    
    418000   1700.3967     -400537.46      0             -378646.35      4763.5458    
    419000   1711.889      -401667.09      0             -379628.02      1181.7773    
    420000   1677.553      -399740.53      0             -378143.52      4674.7517    
    421000   1714.1628     -400232.96      0             -378164.63      4332.6165    
    422000   1719.1173     -399386.92      0             -377254.8       2445.3774    
    423000   1777.3487     -399962.53      0             -377080.73      3627.8504    
    424000   1689.4899     -399417.02      0             -377666.32      3855.2439    
    425000   1710.1355     -398519.3       0             -376502.81      1621.457     
    426000   1741.9376     -397564.82      0             -375138.91      3160.4445    
    427000   1723.4211     -398192.7       0             -376005.17      2182.5534    
    428000   1624.5316     -396983.68      0             -376069.26      952.54128    
    429000   1689.3093     -397296.49      0             -375548.12      2927.5007    
    430000   1692.8512     -397360.29      0             -375566.33      3009.7235    
    431000   1758.2424     -398854.24      0             -376218.42      1861.2433    
    432000   1713.1093     -398906.33      0             -376851.55      3047.6998    
    433000   1723.6761     -399326.66      0             -377135.85      1704.2718    
    434000   1688.9        -399519.5       0             -377776.4       2813.9636    
    435000   1738.1653     -399766.99      0             -377389.64      2658.4821    
    436000   1662.1317     -398408.28      0             -377009.8       1532.9007    
    437000   1739.5468     -399187.95      0             -376792.82      1931.4589    
    438000   1753.9581     -399809.69      0             -377229.03      2936.4592    
    439000   1738.398      -397897.31      0             -375516.97      4183.9735    
    440000   1739.909      -397460.9       0             -375061.1       2005.895     
    441000   1712.3771     -396814.16      0             -374768.81      2999.9327    
    442000   1691.2192     -397612.65      0             -375839.69      3187.0778    
    443000   1724.0657     -398900.55      0             -376704.72      1768.911     
    444000   1740.1329     -397179.01      0             -374776.34      3471.9714    
    445000   1663.0472     -395129.48      0             -373719.21      2415.6438    
    446000   1752.6085     -395339.24      0             -372775.95      3911.7844    
    447000   1736.7523     -396747.55      0             -374388.4       1414.9175    
    448000   1746.2653     -396647.65      0             -374166.02      2056.9028    
    449000   1717.7463     -396452.9       0             -374338.43      3015.4169    
    450000   1690.3069     -398296.57      0             -376535.36      4425.6866    
    451000   1711.5973     -398469.62      0             -376434.31      2883.7721    
    452000   1642.6614     -398803.71      0             -377655.89      2178.7645    
    453000   1747.5636     -399343.48      0             -376845.14      3620.7678    
    454000   1726.7918     -399631.27      0             -377400.35      2276.0474    
    455000   1684.1438     -398999.24      0             -377317.37      3480.456     
    456000   1707.0521     -398055.23      0             -376078.43      3593.8479    
    457000   1680.5557     -397862.76      0             -376227.09      1657.4603    
    458000   1683.3266     -398286.27      0             -376614.93      2596.2412    
    459000   1678.92       -398072.71      0             -376458.1       3472.6961    
    460000   1705.8278     -398793.48      0             -376832.45      3195.9043    
    461000   1711.7898     -398969.52      0             -376931.74      4251.1245    
    462000   1722.2362     -399490.85      0             -377318.58      2207.1328    
    463000   1738.895      -399676.55      0             -377289.8       2522.5764    
    464000   1694.0782     -398697.98      0             -376888.22      1698.6373    
    465000   1659.8494     -398526.41      0             -377157.31      1364.2399    
    466000   1732.6308     -398693.16      0             -376387.07      2028.5874    
    467000   1869.7225     -396998.35      0             -372927.32      3846.161     
    468000   1654.9432     -395808.26      0             -374502.33      2633.0739    
    469000   1646.1284     -395259.5       0             -374067.05      1074.7926    
    470000   1708.5203     -397711.87      0             -375716.18      1436.5207    
    471000   1704.5477     -397164.31      0             -375219.76      1925.2332    
    472000   1706.0507     -397616.47      0             -375652.57      2005.7728    
    473000   1733.543      -399523.13      0             -377205.29      3251.2367    
    474000   1660.2112     -399111.3       0             -377737.54      3643.7512    
    475000   1683.0272     -397859.31      0             -376191.82      2673.4604    
    476000   1661.6162     -399630.36      0             -378238.52      4026.5059    
    477000   1748.6159     -399883.34      0             -377371.45      3060.0184    
    478000   1698.5073     -400035.84      0             -378169.06      2851.238     
    479000   1695.3133     -399768.64      0             -377942.98      2228.9308    
    480000   1686.5744     -399784.66      0             -378071.5       3615.7278    
    481000   1775.9079     -399886.17      0             -377022.92      3593.7004    
    482000   1715.6461     -399520.7       0             -377433.27      2451.1878    
    483000   1680.3562     -398721.78      0             -377088.68      3585.4459    
    484000   1757.3439     -399503.54      0             -376879.28      2867.484     
    485000   1707.8093     -400110.19      0             -378123.66      2246.1918    
    486000   1659.7066     -400232.65      0             -378865.39      2501.4018    
    487000   1708.4618     -400808.33      0             -378813.39      2403.8938    
    488000   1667.0226     -399100.11      0             -377638.66      4261.1437    
    489000   1748.7351     -399817.21      0             -377303.79      2427.5994    
    490000   1682.8858     -398131.19      0             -376465.51      2372.4133    
    491000   1709.4521     -398836.89      0             -376829.2       3993.2901    
    492000   1708.8975     -399211.32      0             -377210.77      3128.7309    
    493000   1658.5126     -398625.24      0             -377273.35      2561.4091    
    494000   1700.0744     -397967.57      0             -376080.62      3433.2432    
    495000   1703.3199     -399130.93      0             -377202.18      3489.0304    
    496000   1741.864      -399397         0             -376972.03      3128.731     
    497000   1699.767      -397961.78      0             -376078.78      2566.6233    
    498000   1714.5053     -398788.15      0             -376715.4       2559.6053    
    499000   1695.4666     -396651.62      0             -374823.98      3940.5258    
    500000   1707.0776     -397070.81      0             -375093.69      4945.9271    
    501000   1707.5333     -395919.57      0             -373936.58      3115.8919    
    502000   1782.4051     -396642.55      0             -373695.66      4410.8435    
    503000   1725.2707     -396118.38      0             -373907.04      2678.4337    
    504000   1676.3246     -397258.47      0             -375677.27      5121.9688    
    505000   1793.2825     -399507.08      0             -376420.14      3179.3572    
    506000   1725.0612     -399014.22      0             -376805.58      3909.9749    
    507000   1732.1666     -398150.26      0             -375850.14      1879.7987    
    508000   1679.1775     -397157.75      0             -375539.82      1221.6436    
    509000   1642.4077     -395488.48      0             -374343.93      2974.9384    
    510000   1708.3305     -396251.08      0             -374257.83      4070.5307    
    511000   1679.1394     -395754.39      0             -374136.95      3280.2896    
    512000   1712.797      -397067.14      0             -375016.39      2153.8763    
    513000   1743.0339     -399161.44      0             -376721.42      3133.0732    
    514000   1713.7681     -397972.62      0             -375909.36      2508.3659    
    515000   1735.6813     -400207.23      0             -377861.86      4592.4786    
    516000   1696.8458     -398371.43      0             -376526.03      3643.2742    
    517000   1730.4248     -399225.88      0             -376948.18      3515.74      
    518000   1708.4556     -399287.42      0             -377292.56      2865.3152    
    519000   1711.3821     -400027.26      0             -377994.72      3920.5806    
    520000   1700.7147     -400086.59      0             -378191.39      3350.4242    
    521000   1736.6546     -401326.35      0             -378968.46      3480.8908    
    522000   1653.1803     -402051.16      0             -380767.93      1941.5914    
    523000   1662.4218     -400541.81      0             -379139.59      3778.0925    
    524000   1696.4893     -400869.89      0             -379029.08      1836.5158    
    525000   1713.3069     -401301.21      0             -379243.89      2493.1903    
    526000   1763.8789     -403267.35      0             -380558.96      3016.2878    
    527000   1700.7892     -401996.42      0             -380100.26      3172.3147    
    528000   1725.5928     -400034.66      0             -377819.17      129.66784    
    529000   1733.1485     -398880.5       0             -376567.75      3669.838     
    530000   1673.968      -399348.59      0             -377797.72      2540.7797    
    531000   1700.2518     -400681.37      0             -378792.13      2053.9661    
    532000   1703.2472     -399098.43      0             -377170.62      3869.7041    
    533000   1694.9133     -397873.77      0             -376053.25      2828.6158    
    534000   1675.1669     -399910.04      0             -378343.74     -515.16482    
    535000   1674.0414     -398852.5       0             -377300.69      3753.6518    
    536000   1739.3449     -398843.86      0             -376451.33      1970.8481    
    537000   1701.3866     -400521.15      0             -378617.29      3632.5913    
    538000   1740.6584     -401167.83      0             -378758.38      3723.6475    
    539000   1690.4422     -399607.14      0             -377844.18      1633.5689    
    540000   1735.2771     -399491.28      0             -377151.12      5191.0106    
    541000   1661.1066     -399358.36      0             -377973.08      2140.5784    
    542000   1662.9098     -397034.93      0             -375626.43      3818.7682    
    543000   1787.0849     -400040.47      0             -377033.33      2637.942     
    544000   1735.1253     -399385.52      0             -377047.31      2992.804     
    545000   1688.0332     -399217.27      0             -377485.33      3452.973     
    546000   1700.3299     -399841.16      0             -377950.91      4151.988     
    547000   1776.1922     -398834.49      0             -375967.58      3597.5126    
    548000   1682.6656     -399208.44      0             -377545.6       2236.0066    
    549000   1726.4853     -399597.05      0             -377370.07      2336.8949    
    550000   1750.18       -399906.79      0             -377374.77      2283.0437    
    551000   1655.6349     -399643.09      0             -378328.25      3222.9675    
    552000   1683.7183     -399324.66      0             -377648.27      1846.1426    
    553000   1743.6428     -399556.33      0             -377108.47      2444.9299    
    554000   1751.3826     -401235.16      0             -378687.65      3105.2396    
    555000   1692.0673     -400612.69      0             -378828.81      3317.784     
    556000   1682.938      -400490.36      0             -378824.02      3433.3834    
    557000   1723.0172     -401465.78      0             -379283.45      2789.2393    
    558000   1715.9834     -401147.16      0             -379055.39      2194.9211    
    559000   1710.3571     -402465.22      0             -380445.88      4140.387     
    560000   1768.0003     -401777.23      0             -379015.79      2386.6394    
    561000   1730.5255     -401017.82      0             -378738.83      4272.6139    
    562000   1723.1735     -400844.3       0             -378659.96      2563.2738    
    563000   1673.3534     -400528.19      0             -378985.24      1855.9816    
    564000   1664.0155     -400853.5       0             -379430.76      5553.1583    
    565000   1747.2541     -400591.56      0             -378097.2       3285.0222    
    566000   1707.9028     -398033.2       0             -376045.46      3695.8019    
    567000   1796.0833     -400076.16      0             -376953.17      2250.5687    
    568000   1731.3432     -399014.08      0             -376724.56      1637.1397    
    569000   1708.0449     -398734.46      0             -376744.89      2523.9186    
    570000   1725.928      -400433.01      0             -378213.2       3288.3396    
    571000   1755.595      -401056.05      0             -378454.31      2575.439     
    572000   1691.3128     -399908.42      0             -378134.26      3297.6558    
    573000   1713.5477     -400579.52      0             -378519.1       3059.3323    
    574000   1726.6305     -398505.06      0             -376276.21      3213.6251    
    575000   1712.0969     -398170.73      0             -376128.99      2187.3547    
    576000   1714.7145     -398057.92      0             -375982.49      2804.1226    
    577000   1661.8196     -397401.63      0             -376007.16      2971.5951    
    578000   1747.0901     -399813.37      0             -377321.13      1571.2153    
    579000   1732.3472     -400228.02      0             -377925.57      3354.1219    
    580000   1698.4836     -400235.18      0             -378368.7       2596.2611    
    581000   1683.9782     -399584.09      0             -377904.36      3172.9674    
    582000   1704.7682     -400596.95      0             -378649.56      3149.2635    
    583000   1704.517      -398544.21      0             -376600.06      3388.477     
    584000   1713.9177     -399478.27      0             -377413.09      4071.3623    
    585000   1718.5305     -398815.57      0             -376691         4355.3104    
    586000   1761.7164     -398953.4       0             -376272.86      3365.7253    
    587000   1715.9935     -399473.96      0             -377382.05      3567.7921    
    588000   1747.4233     -399821.8       0             -377325.27      2233.8822    
    589000   1759.8437     -400419.11      0             -377762.68      3006.9834    
    590000   1725.4631     -400239.41      0             -378025.59      4112.4927    
    591000   1669.0062     -398813.09      0             -377326.11      2093.4846    
    592000   1677.5316     -400150.95      0             -378554.21      1552.8718    
    593000   1684.7578     -400375.8       0             -378686.03      3571.9109    
    594000   1748.9542     -401436.92      0             -378920.68      2194.5046    
    595000   1724.7821     -400949.29      0             -378744.24      2251.391     
    596000   1704.4999     -400230.76      0             -378286.83      1295.5134    
    597000   1689.3321     -399474.62      0             -377725.96      2517.0281    
    598000   1692.5172     -399769.29      0             -377979.62      2560.0461    
    599000   1691.8879     -401032.18      0             -379250.61      1720.4742    
    600000   1675.7759     -400394         0             -378819.86      3246.6906    
    601000   1703.9564     -400596.35      0             -378659.41      2790.2521    
    602000   1711.3995     -400103.98      0             -378071.22      3589.2956    
    603000   1810.3046     -400660.19      0             -377354.11      2031.7492    
    604000   1741.8038     -401375.66      0             -378951.47      4654.8126    
    605000   1694.6613     -399749.33      0             -377932.06      1839.5318    
    606000   1711.7669     -400802.64      0             -378765.15      2298.4852    
    607000   1778.3227     -402289.31      0             -379394.98      3146.2921    
    608000   1658.1657     -400737.61      0             -379390.19      4603.3543    
    609000   1703.5023     -400991.19      0             -379060.1       3132.6049    
    610000   1741.9996     -400317.44      0             -377890.73      3214.9123    
    611000   1683.9093     -400200.36      0             -378521.51      1120.6976    
    612000   1703.7047     -400125.48      0             -378191.79      3426.716     
    613000   1768.245      -400763.87      0             -377999.28      2100.5222    
    614000   1692.5489     -399812.82      0             -378022.74      3107.1311    
    615000   1690.1368     -400252.11      0             -378493.09      3514.1793    
    616000   1687.2593     -400399.88      0             -378677.91      2024.0598    
    617000   1688.5563     -400336.72      0             -378598.05      2775.3917    
    618000   1708.7639     -400084.21      0             -378085.39      2699.9304    
    619000   1713.6251     -400636.18      0             -378574.77      1935.8219    
    620000   1778.0019     -399777.74      0             -376887.53      1514.2986    
    621000   1753.7134     -400838.48      0             -378260.96      2874.3634    
    622000   1705.7708     -400821.85      0             -378861.56      2644.9228    
    623000   1664.0299     -400123.2       0             -378700.28      2275.8345    
    624000   1687.9482     -400439.11      0             -378708.26      3864.7549    
    625000   1742.5724     -400911.09      0             -378477         2611.1031    
    626000   1756.353      -400528.12      0             -377916.63      4285.2566    
    627000   1661.3039     -400050.4       0             -378662.57      2520.404     
    628000   1715.2178     -399570.33      0             -377488.41      5207.9591    
    629000   1712.8527     -399509.8       0             -377458.33      4405.6095    
    630000   1703.8249     -399331.4       0             -377396.16      2633.251     
    631000   1725.1412     -398484.64      0             -376274.97      2050.2506    
    632000   1688.1041     -399524.66      0             -377791.81      2442.1407    
    633000   1697.8161     -398980.31      0             -377122.42      4009.7311    
    634000   1751.8573     -400871.77      0             -378318.15      2177.2237    
    635000   1782.3867     -400260.79      0             -377314.14      3581.7573    
    636000   1726.3759     -399714.98      0             -377489.41      3569.7208    
    637000   1677.723      -399757.19      0             -378157.99      3128.1408    
    638000   1804.6896     -402344.27      0             -379110.48      2752.5027    
    639000   1686.8649     -400513.97      0             -378797.07      950.66152    
    640000   1694.917      -399952.56      0             -378131.99      2324.9581    
    641000   1764.9957     -400745.22      0             -378022.45      3722.3364    
    642000   1747.6088     -400429.14      0             -377930.21      3358.5015    
    643000   1749.7816     -402073.76      0             -379546.86      3081.2398    
    644000   1722.9237     -400614.47      0             -378433.34      3396.2682    
    645000   1692.4512     -400734.9       0             -378946.09      1455.7361    
    646000   1674.7314     -401297.09      0             -379736.4       4095.7549    
    647000   1724.4806     -401859.27      0             -379658.1       3261.7522    
    648000   1708.8851     -400862.2       0             -378861.81      3227.8688    
    649000   1744.1286     -403005.19      0             -380551.08      2397.3123    
    650000   1684.6162     -400669.92      0             -378981.97      3186.1273    
    651000   1770.9045     -401669.36      0             -378870.53      2738.7699    
    652000   1759.3199     -401529.13      0             -378879.44      4200.8445    
    653000   1725.7486     -403685.68      0             -381468.18      3497.4179    
    654000   1759.2172     -403020.55      0             -380372.18      2316.0806    
    655000   1715.5761     -403427.86      0             -381341.33      4321.431     
    656000   1710.6778     -403129.99      0             -381106.52      2198.0953    
    657000   1632.737      -402228.83      0             -381208.78      1872.7967    
    658000   1714.5569     -402049.55      0             -379976.14      2380.2584    
    659000   1712.0795     -402416.06      0             -380374.55      2310.3733    
    660000   1705.7672     -403602.81      0             -381642.56      3956.3151    
    661000   1735.9532     -405650.16      0             -383301.29      3075.8536    
    662000   1733.4595     -403450.09      0             -381133.33      2286.3458    
    663000   1699.8669     -402969.49      0             -381085.2       3505.8636    
    664000   1685.7637     -402504.91      0             -380802.18      3874.773     
    665000   1719.809      -401991.4       0             -379850.37      2615.7819    
    666000   1682.8396     -402937.64      0             -381272.56      1458.9504    
    667000   1756.7576     -402478.67      0             -379861.97      5962.9856    
    668000   1739.1864     -402974.19      0             -380583.7       4197.9854    
    669000   1692.4823     -403518.98      0             -381729.76      1056.1195    
    670000   1671.9751     -403738.5       0             -382213.29      3994.4809    
    671000   1677.3111     -402746.75      0             -381152.85      3525.4957    
    672000   1768.6496     -403030.37      0             -380260.57      2926.0675    
    673000   1730.8821     -402745.75      0             -380462.17      3206.2933    
    674000   1689.9854     -401192.67      0             -379435.59      2332.9701    
    675000   1735.4674     -401036.57      0             -378693.95      2933.9222    
    676000   1803.7914     -401268.18      0             -378045.96      3187.7013    
    677000   1672.2942     -400428.83      0             -378899.52      2931.4679    
    678000   1720.5659     -399274.65      0             -377123.88      2560.723     
    679000   1756.616      -400517.08      0             -377902.2       3193.7322    
    680000   1731.1093     -398871.81      0             -376585.31      902.21919    
    681000   1683.941      -398508.33      0             -376829.07      3355.2878    
    682000   1728.7557     -399848.29      0             -377592.08      2651.7855    
    683000   1765.9823     -399460.46      0             -376724.99      1761.8393    
    684000   1695.9887     -398045.89      0             -376211.53      1869.8435    
    685000   1674.0092     -396477.4       0             -374926         2859.0161    
    686000   1717.3019     -397627.02      0             -375518.27      4084.6897    
    687000   1708.0045     -398083.57      0             -376094.52      4745.1161    
    688000   1722.3365     -398057.97      0             -375884.41      1079.6284    
    689000   1778.4045     -398199.38      0             -375303.99      1785.9136    
    690000   1689.7142     -397413.58      0             -375659.99      2790.8158    
    691000   1704.5299     -398390.7       0             -376446.38      2629.9484    
    692000   1701.4967     -399496.78      0             -377591.51      1588.0006    
    693000   1697.8102     -400012.23      0             -378154.42      4168.8028    
    694000   1693.8812     -400046.57      0             -378239.34      2157.4053    
    695000   1759.0778     -399669.95      0             -377023.37      2694.0134    
    696000   1707.8677     -398866.94      0             -376879.65      3045.0983    
    697000   1670.9839     -397701.71      0             -376189.27      1369.5251    
    698000   1710.4779     -398972.41      0             -376951.51      2841.5798    
    699000   1669.3343     -398226.22      0             -376735.01      2324.673     
    700000   1726.0841     -399168.62      0             -376946.81      2083.0659    
    701000   1756.7039     -399605.64      0             -376989.63      2951.1333    
    702000   1706.1269     -400621.88      0             -378657         1588.9732    
    703000   1669.1702     -398624.19      0             -377135.09      2968.7125    
    704000   1732.1165     -400629.21      0             -378329.74      2001.8121    
    705000   1745.1382     -400284.1       0             -377816.98      3516.1342    
    706000   1711.0311     -401077.26      0             -379049.25      3751.1708    
    707000   1704.2373     -401096.04      0             -379155.49      2791.9821    
    708000   1678.336      -399190.33      0             -377583.23      3114.9234    
    709000   1717.0379     -400000.51      0             -377895.16      1200.7402    
    710000   1682.4446     -398835.37      0             -377175.38      2098.575     
    711000   1741.9237     -399586.83      0             -377161.09      4491.4406    
    712000   1746.465      -400183.62      0             -377699.42      4729.3536    
    713000   1672.1649     -401360.79      0             -379833.14      2513.3089    
    714000   1651.4706     -400905.07      0             -379643.84      889.36754    
    715000   1691.6023     -400409.01      0             -378631.13      2993.4615    
    716000   1666.7554     -399414.53      0             -377956.53      3071.4352    
    717000   1736.1424     -401036.99      0             -378685.69      2637.8245    
    718000   1723.3229     -400373.16      0             -378186.9       5556.5461    
    719000   1715.15       -399282.31      0             -377201.27      2495.1709    
    720000   1747.5711     -400297.56      0             -377799.13      3884.2854    
    721000   1719.6176     -399111.94      0             -376973.38      3940.4736    
    722000   1666.9616     -399432.04      0             -377971.38      1924.9276    
    723000   1742.6908     -400606.32      0             -378170.71      3861.9424    
    724000   1753.8589     -398300.89      0             -375721.51      2925.0957    
    725000   1731.4082     -399370.7       0             -377080.35      3094.6955    
    726000   1719.2789     -400043.17      0             -377908.97      2919.6283    
    727000   1734.0884     -398138.14      0             -375813.28      3054.3067    
    728000   1721.5505     -398425.46      0             -376262.02      2857.8792    
    729000   1706.0599     -399539.81      0             -377575.79      3264.5208    
    730000   1682.8888     -399424.36      0             -377758.65      2804.8201    
    731000   1661.2101     -398445.62      0             -377059         3814.3454    
    732000   1731.6527     -399627.27      0             -377333.76      4041.703     
    733000   1785.8118     -399958.36      0             -376967.61      4708.4739    
    734000   1635.9501     -399491.56      0             -378430.14      2234.7964    
    735000   1760.638      -399719.9       0             -377053.24      4286.9863    
    736000   1718.2603     -399107.61      0             -376986.52      2477.9634    
    737000   1662.2478     -399389.38      0             -377989.4       2356.6216    
    738000   1751.2396     -400415.39      0             -377869.73      4045.7879    
    739000   1781.2926     -401530.68      0             -378598.11      3668.0091    
    740000   1687.6725     -399532.8       0             -377805.51      4622.3177    
    741000   1701.8189     -398858.13      0             -376948.71      2369.5434    
    742000   1651.8052     -398991.87      0             -377726.34      3803.9704    
    743000   1721.5393     -399675.69      0             -377512.39      2880.5488    
    744000   1707.7163     -400163.23      0             -378177.89      2438.6092    
    745000   1714.5376     -399220.64      0             -377147.48      3096.1592    
    746000   1737.8962     -400667.22      0             -378293.34      3224.8349    
    747000   1715.4938     -401182.9       0             -379097.43      2355.3547    
    748000   1728.4368     -402191.5       0             -379939.4       3195.8529    
    749000   1673.287      -402100.06      0             -380557.97      2607.6131    
    750000   1688.0493     -401015.38      0             -379283.23      3392.9609    
    751000   1731.9693     -402091.72      0             -379794.14      2330.9861    
    752000   1740.7473     -401202.44      0             -378791.85      1700.5968    
    753000   1802.0589     -401711.59      0             -378511.67      2947.12      
    754000   1702.1575     -402130.24      0             -380216.46      1746.9285    
    755000   1628.2315     -399518.9       0             -378556.86      1568.6954    
    756000   1706.8792     -399530.43      0             -377555.87      3016.5047    
    757000   1684.5595     -400663.71      0             -378976.49      2028.384     
    758000   1716.3155     -399339.9       0             -377243.85      2657.2369    
    759000   1697.3833     -400244.33      0             -378392.02      3513.4784    
    760000   1712.4848     -400949.33      0             -378902.6       3450.6601    
    761000   1729.1455     -402241.91      0             -379980.68      3654.5137    
    762000   1708.0036     -402649.88      0             -380660.84      2952.37      
    763000   1747.621      -403127.68      0             -380628.6       2797.2102    
    764000   1761.1659     -403787.78      0             -381114.32      3131.3953    
    765000   1654.9794     -402876.74      0             -381570.34      3542.5448    
    766000   1727.882      -403165.8       0             -380920.84      3521.4059    
    767000   1709.9588     -402200.38      0             -380186.17      1241.8539    
    768000   1718.2241     -401118.14      0             -378997.52      4363.1558    
    769000   1697.2529     -400054.64      0             -378204         2094.2123    
    770000   1675.8735     -401323.27      0             -379747.88      2489.726     
    771000   1675.5011     -400845.91      0             -379275.31      3435.0802    
[...]
   4789000   1653.3523     -399916.16      0             -378630.71      1010.8867    
   4790000   1705.4084     -398386.51      0             -376430.89      2454.0876    
   4791000   1745.0501     -400008.24      0             -377542.26      2029.451     
   4792000   1776.9684     -401259.85      0             -378382.95      2730.2902    
   4793000   1708.303      -400774.75      0             -378781.85      1045.3304    
   4794000   1661.5518     -399922.44      0             -378531.42      1763.7322    
   4795000   1775.9335     -401585.34      0             -378721.76      2952.3668    
   4796000   1694.2954     -401837.89      0             -380025.33      1764.2644    
   4797000   1719.097      -402369.31      0             -380237.45      2045.7184    
   4798000   1728.6222     -405096.52      0             -382842.03      2077.5294    
   4799000   1663.1081     -402017.12      0             -380606.07      2909.5802    
   4800000   1713.8563     -402826.31      0             -380761.92      2814.2723    
   4801000   1667.4315     -402571.74      0             -381105.03      3252.8267    
   4802000   1707.5524     -402596.83      0             -380613.6       3256.3779    
   4803000   1623.765      -402123.1       0             -381218.56      2318.9962    
   4804000   1686.7369     -402953.77      0             -381238.51      4219.6098    
   4805000   1725.651      -402821.54      0             -380605.3       2345.4001    
   4806000   1735.0827     -401958.33      0             -379620.67      3655.086     
   4807000   1704.8544     -400641.07      0             -378692.58      2623.2771    
   4808000   1647.7772     -400381.85      0             -379168.18      3844.7954    
   4809000   1754.5394     -401208.9       0             -378620.75      2987.8092    
   4810000   1739.7618     -401350.29      0             -378952.39      3331.8902    
   4811000   1767.6954     -402457.32      0             -379699.8       4851.9074    
   4812000   1763.7987     -403095.23      0             -380387.88      3200.3945    
   4813000   1690.413      -402599.94      0             -380837.36      2322.3495    
   4814000   1757.9093     -403167.13      0             -380535.6       2747.0267    
   4815000   1687.8491     -401835.93      0             -380106.36      3069.5817    
   4816000   1729.8962     -402539.34      0             -380268.45      3950.4767    
   4817000   1732.7031     -403297.65      0             -380990.62      3397.7559    
   4818000   1678.6711     -401510.25      0             -379898.84      997.27854    
   4819000   1718.047      -402606.14      0             -380487.8       4327.8651    
   4820000   1731.3744     -402528.22      0             -380238.3       2929.8434    
   4821000   1710.7504     -400825.65      0             -378801.25      2690.8622    
   4822000   1650.7668     -400496.76      0             -379244.6       2422.2693    
   4823000   1748.3788     -399792.42      0             -377283.58      4223.736     
   4824000   1706.8966     -401676.76      0             -379701.97      4605.1435    
   4825000   1673.7718     -401222.72      0             -379674.39      2994.8784    
   4826000   1752.902      -400518.09      0             -377951.02      4310.2803    
   4827000   1745.93       -401636.47      0             -379159.16      2811.5823    
   4828000   1801.7312     -399998.05      0             -376802.35      2873.6874    
   4829000   1678.3026     -399277.93      0             -377671.26      2200.6066    
   4830000   1738.4012     -399499.01      0             -377118.63      2161.6186    
   4831000   1665.5457     -399809.41      0             -378366.98      1455.6508    
   4832000   1682.6599     -398311.4       0             -376648.63      4064.9693    
   4833000   1721.7248     -399634.02      0             -377468.33      2785.3108    
   4834000   1677.6048     -399375.46      0             -377777.77      2848.035     
   4835000   1768.6227     -401351.89      0             -378582.44      4368.4774    
   4836000   1641.3262     -399640.11      0             -378509.48      2105.8165    
   4837000   1710.7395     -400656.89      0             -378632.63      3924.3532    
   4838000   1713.8804     -401189.02      0             -379124.32      3921.4897    
   4839000   1727.4357     -399607.7       0             -377368.49      2320.8604    
   4840000   1693.9944     -399577.09      0             -377768.4       3263.3585    
   4841000   1703.3743     -398181.81      0             -376252.37      4460.7772    
   4842000   1673.8811     -398728.35      0             -377178.61      3025.561     
   4843000   1768.5962     -399447.67      0             -376678.55      2360.4454    
   4844000   1720.9832     -400872.8       0             -378716.66      5348.9409    
   4845000   1698.5239     -401639.88      0             -379772.88      2859.626     
   4846000   1728.4401     -400131.89      0             -377879.74      2896.4043    
   4847000   1745.6293     -399230.95      0             -376757.51      4491.2801    
   4848000   1765.6525     -399509.25      0             -376778.03      903.7313     
   4849000   1712.5802     -398292.95      0             -376244.99      1001.2892    
   4850000   1713.5686     -397554.6       0             -375493.91      3336.0606    
   4851000   1701.6306     -397599.45      0             -375692.46      3196.5824    
   4852000   1725.8848     -397478.76      0             -375259.52      2879.9143    
   4853000   1657.3189     -398988.24      0             -377651.72      3799.8679    
   4854000   1774.1514     -400279.06      0             -377438.43      2632.8408    
   4855000   1717.2682     -400362.56      0             -378254.24      4139.6518    
   4856000   1778.1557     -399454.42      0             -376562.23      4489.7396    
   4857000   1701.019      -398369.2       0             -376470.08      3515.0248    
   4858000   1662.8826     -399340.24      0             -377932.09      2395.2636    
   4859000   1668.7894     -398899.51      0             -377415.32      3213.9568    
   4860000   1695.1728     -400624.48      0             -378800.63      3987.2346    
   4861000   1740.2195     -401377.43      0             -378973.64      2101.6689    
   4862000   1749.1903     -401168.94      0             -378649.66      3297.115     
   4863000   1686.1266     -400490.06      0             -378782.67      3057.5592    
   4864000   1741.4696     -399626.08      0             -377206.19      4214.2057    
   4865000   1723.8047     -401065.01      0             -378872.55      3557.7399    
   4866000   1693.3697     -400240.16      0             -378439.52      2497.9052    
   4867000   1705.1667     -401675.35      0             -379722.83      3171.7415    
   4868000   1697.9019     -401389.13      0             -379530.14      3014.4098    
   4869000   1820.0336     -401748.13      0             -378316.8       3418.1485    
   4870000   1687.8432     -399594.57      0             -377865.07      2247.9545    
   4871000   1702.5488     -400386.69      0             -378467.88      3833.061     
   4872000   1782.9665     -400269.6       0             -377315.48      3992.6757    
   4873000   1766.0418     -399580.8       0             -376844.56      4623.2413    
   4874000   1733.0115     -399370.61      0             -377059.61      3053.2472    
   4875000   1740.9939     -398459.5       0             -376045.73      2722.2843    
   4876000   1661.471      -399236.27      0             -377846.3       2607.1894    
   4877000   1788.4605     -401562.89      0             -378538.04      1649.2139    
   4878000   1750.7731     -401300.57      0             -378760.91      2785.1283    
   4879000   1694.881      -400548.01      0             -378727.91      2505.6163    
   4880000   1658.1695     -400218.42      0             -378870.95      2739.7695    
   4881000   1728.328      -400610.26      0             -378359.56      2514.0642    
   4882000   1691.9442     -399600.24      0             -377817.95      1268.6502    
   4883000   1645.5418     -400190.1       0             -379005.2       1680.3018    
   4884000   1681.6378     -400564.54      0             -378914.93      2315.2047    
   4885000   1712.8693     -401091.98      0             -379040.29      1903.1508    
   4886000   1736.3985     -400623.53      0             -378268.93      2338.6115    
   4887000   1650.7723     -399947.27      0             -378695.03      2152.1349    
   4888000   1742.7024     -399025.56      0             -376589.8       2563.3654    
   4889000   1722.8081     -398989.97      0             -376810.33      5068.8764    
   4890000   1719.6614     -399318.44      0             -377179.31      2483.4538    
   4891000   1690.6115     -399485.32      0             -377720.18      3099.3589    
   4892000   1732.5629     -400315.96      0             -378010.74      3147.9252    
   4893000   1787.3537     -401302.38      0             -378291.78      1714.9767    
   4894000   1703.8239     -401432.21      0             -379496.98      2278.6616    
   4895000   1739.4775     -400448.27      0             -378054.03      2417.9478    
   4896000   1673.6992     -397974.12      0             -376426.72      2875.8242    
   4897000   1760.3731     -398663.16      0             -375999.91      4314.0994    
   4898000   1691.0732     -398647.14      0             -376876.06      2710.1367    
   4899000   1679.5147     -399892.99      0             -378270.72      3147.3557    
   4900000   1711.6886     -401708.45      0             -379671.96      2613.5755    
   4901000   1680.0936     -401014.82      0             -379385.1       1129.708     
   4902000   1710.2987     -402377.61      0             -380359.02      3996.5862    
   4903000   1716.5003     -402504.88      0             -380406.45      3162.9726    
   4904000   1693.0667     -401288.19      0             -379491.45      1248.8976    
   4905000   1693.8427     -403738.05      0             -381931.32      2214.3431    
   4906000   1664.4501     -401525.73      0             -380097.41      3697.8552    
   4907000   1703.6062     -402935.01      0             -381002.58      3525.3513    
   4908000   1757.0195     -400394.97      0             -377774.89      2749.9836    
   4909000   1721.6745     -400896.9       0             -378731.86      3149.2627    
   4910000   1701.5022     -401408.77      0             -379503.43      3626.2226    
   4911000   1709.3477     -400164.87      0             -378158.53      2722.7281    
   4912000   1743.8293     -400950.26      0             -378499.99      3405.0845    
   4913000   1691.3446     -401130.69      0             -379356.12      2863.441     
   4914000   1700.3525     -401738.19      0             -379847.65      2859.2015    
   4915000   1721.2356     -401848.29      0             -379688.89      4917.01      
   4916000   1759.9046     -401882.29      0             -379225.06      3809.8638    
   4917000   1764.5946     -402528.3       0             -379810.7       2400.8566    
   4918000   1711.6863     -402966.63      0             -380930.17      3862.2234    
   4919000   1742.8302     -402067.49      0             -379630.09      4006.9208    
   4920000   1664.0532     -402500.93      0             -381077.71      3045.7785    
   4921000   1709.5704     -403097.61      0             -381088.4       2754.9532    
   4922000   1745.8702     -400590.25      0             -378113.71      3123.098     
   4923000   1707.258      -401170.13      0             -379190.69      2188.9434    
   4924000   1735.6668     -400954.54      0             -378609.36      3907.595     
   4925000   1647.8807     -399570.13      0             -378355.12      1378.9277    
   4926000   1664.1793     -397587.76      0             -376162.92      2929.9324    
   4927000   1670.439      -399619.99      0             -378114.56      2834.3944    
   4928000   1703.6269     -400655.51      0             -378722.81      3137.4645    
   4929000   1723.1847     -401279.14      0             -379094.66      4525.088     
   4930000   1655.9376     -401747.01      0             -380428.28      2074.3334    
   4931000   1710.097      -398835.19      0             -376819.2       2467.5407    
   4932000   1718.8108     -400288.68      0             -378160.51      4678.029     
   4933000   1740.4714     -398718.94      0             -376311.9       1224.9979    
   4934000   1709.6188     -399899.29      0             -377889.45      3032.1117    
   4935000   1720.1579     -401201.92      0             -379056.4       3823.3692    
   4936000   1734.8236     -401913.18      0             -379578.85      3851.4193    
   4937000   1713.7086     -401035.46      0             -378972.97      1743.8906    
   4938000   1645.0975     -400498.65      0             -379319.47      2735.9704    
   4939000   1713.6687     -400327.32      0             -378265.34      2807.4042    
   4940000   1648.2642     -398576.14      0             -377356.19      1764.747     
   4941000   1750.2888     -399601.87      0             -377068.44      2704.9991    
   4942000   1720.0348     -400042.25      0             -377898.32      1909.4849    
   4943000   1789.4812     -400334.04      0             -377296.05      4041.9202    
   4944000   1686.2158     -399276.42      0             -377567.87      2172.6058    
   4945000   1644.1056     -398743.2       0             -377576.79      4531.219     
   4946000   1725.8338     -398545.33      0             -376326.74      3985.0929    
   4947000   1681.2312     -399403.14      0             -377758.77      879.8605     
   4948000   1739.0768     -401130.05      0             -378740.97      3459.9702    
   4949000   1758.059      -401198.19      0             -378564.73      3209.0422    
   4950000   1719.1539     -399734.39      0             -377601.8       1828.0765    
   4951000   1744.0404     -400922.83      0             -378469.84      4934.5844    
   4952000   1676.689      -398943.45      0             -377357.55      2539.2908    
   4953000   1728.7465     -400482.91      0             -378226.82      575.69613    
   4954000   1726.5524     -400969.12      0             -378741.28      3255.3068    
   4955000   1704.3516     -399830.45      0             -377888.43      2136.6667    
   4956000   1753.5766     -401264.06      0             -378688.3       3106.8767    
   4957000   1729.4295     -401644.91      0             -379380.03      2719.7526    
   4958000   1745.474      -400300.27      0             -377828.83      2030.6555    
   4959000   1702.9725     -399776.45      0             -377852.18      2709.5886    
   4960000   1798.0055     -398571.8       0             -375424.07      1921.5824    
   4961000   1723.7899     -399096.01      0             -376903.74      1598.0781    
   4962000   1751.5415     -399902.88      0             -377353.32      4701.5431    
   4963000   1710.8088     -400445.64      0             -378420.49      1429.5484    
   4964000   1696.3043     -399453.71      0             -377615.29      2012.3578    
   4965000   1701.0989     -399765.04      0             -377864.89      2641.9129    
   4966000   1677.9433     -398084.25      0             -376482.21      2501.0393    
   4967000   1672.7273     -398266.49      0             -376731.6       4570.0396    
   4968000   1699.392      -400274.62      0             -378396.44      2788.0082    
   4969000   1693.5085     -399240.06      0             -377437.63      2418.6461    
   4970000   1778.4289     -400114.49      0             -377218.79      4063.629     
   4971000   1752.9578     -400930.05      0             -378362.26      3817.2371    
   4972000   1712.6179     -401265.7       0             -379217.25      1582.8273    
   4973000   1697.6643     -400300.95      0             -378445.02      3798.436     
   4974000   1728.2655     -401267.72      0             -379017.82      2435.4554    
   4975000   1687.6646     -399718.65      0             -377991.45      1981.121     
   4976000   1707.9402     -400218.66      0             -378230.43      2263.4076    
   4977000   1721.7321     -398985.58      0             -376819.79      4113.3561    
   4978000   1682.761      -397405.74      0             -375741.68      2825.95      
   4979000   1745.9617     -400176.01      0             -377698.29      3108.6258    
   4980000   1685.3897     -399388.51      0             -377690.61      2788.5584    
   4981000   1711.8687     -400549.36      0             -378510.56      4812.9854    
   4982000   1720.7208     -399604.15      0             -377451.39      3451.9111    
   4983000   1787.5366     -399014.67      0             -376001.71      4053.6411    
   4984000   1683.0817     -399279.39      0             -377611.2       4149.8602    
   4985000   1707.7988     -397781.99      0             -375795.59      3768.1193    
   4986000   1727.651      -398197.55      0             -375955.56      2523.3534    
   4987000   1758.6595     -397768.74      0             -375127.55      3209.9913    
   4988000   1717.179      -398224.57      0             -376117.41      2780.6938    
   4989000   1700.0758     -398072.94      0             -376185.97      1744.4165    
   4990000   1726.827      -399067.33      0             -376835.95      3962.7007    
   4991000   1687.1504     -399103.34      0             -377382.76      3268.0412    
   4992000   1691.1776     -398423.31      0             -376650.89      1965.9284    
   4993000   1665.7246     -397617.07      0             -376172.33      2397.3593    
   4994000   1747.2099     -400603.46      0             -378109.67      4207.9283    
   4995000   1722.9392     -401135.94      0             -378954.62      2358.0727    
   4996000   1758.7497     -401227.37      0             -378585.02      3925.7287    
   4997000   1680.1251     -401946.06      0             -380315.93      2094.033     
   4998000   1683.8565     -400725.29      0             -379047.12      3232.426     
   4999000   1732.8953     -402643.75      0             -380334.25      2092.4337    
   5000000   1700.3601     -402026.52      0             -380135.88      3406.7522    
   5001000   1673.6842     -402825.74      0             -381278.53      2620.5171    
   5002000   1709.8088     -403089.96      0             -381077.67      3689.7849    
   5003000   1724.0842     -402519.4       0             -380323.34      4496.4353    
   5003013   1736.5952     -402654.38      0             -380297.25      3251.6414    
Loop time of 291771 on 20 procs for 5000000 steps with 4320 atoms

Performance: 0.740 ns/day, 32.419 hours/ns, 17.137 timesteps/s, 74.031 katom-step/s
109.8% CPU use with 1 MPI tasks x 20 OpenMP threads

MPI task timing breakdown:
Section |  min time  |  avg time  |  max time  |%varavg| %total
---------------------------------------------------------------
Pair    | 2.8317e+05 | 2.8317e+05 | 2.8317e+05 |   0.0 | 97.05
Neigh   | 4864.3     | 4864.3     | 4864.3     |   0.0 |  1.67
Comm    | 165.32     | 165.32     | 165.32     |   0.0 |  0.06
Output  | 8.2318     | 8.2318     | 8.2318     |   0.0 |  0.00
Modify  | 3282       | 3282       | 3282       |   0.0 |  1.12
Other   |            | 280.1      |            |       |  0.10

Nlocal:           4320 ave        4320 max        4320 min
Histogram: 1 0 0 0 0 0 0 0 0 0
Nghost:           6176 ave        6176 max        6176 min
Histogram: 1 0 0 0 0 0 0 0 0 0
Neighs:         422737 ave      422737 max      422737 min
Histogram: 1 0 0 0 0 0 0 0 0 0

Total # of neighbors = 422737
Ave neighs/atom = 97.855787
Neighbor list builds = 226946
Dangerous builds = 0
Total wall time: 81:07:05
