LAMMPS (29 Aug 2024 - Update 1)
OMP_NUM_THREADS environment is not set. Defaulting to 1 thread. (src/comm.cpp:98)
  using 1 OpenMP thread(s) per MPI task
Loaded 1 plugins from C:\Users\ahmed\AppData\Local\LAMMPS 64-bit 29Aug2024\plugins
variable T equal 700  # Target temperature

units real
atom_style charge
boundary p p f  # periodic in x and y, fixed in z

# Read graphene structure (carbon only)
read_data graphene.data
Reading data file ...
  orthogonal box = (0.1502 0.13 -42) to (93.48 93.72 42)
  1 by 1 by 1 MPI processor grid
  reading atoms ...
  6688 atoms
  read_data CPU = 0.026 seconds

# ReaxFF potential
pair_style reaxff NULL safezone 3.0 mincap 150
pair_coeff * * ffield.reax.FC.txt C F
Reading potential file ffield.reax.FC.txt with DATE: 2013-06-28
WARNING: Changed valency_val to valency_boc for X (src/REAXFF/reaxff_ffield.cpp:294)

# Define groups
group graphene type 1
6688 atoms in group graphene

# Charge equilibration
fix qeq all qeq/reaxff 100 0.0 10.0 1.0e-6 reaxff

# Prevent atoms from flying out of z bounds
fix wall all wall/reflect zlo EDGE zhi EDGE

# Temperature monitoring
compute tgraphene graphene temp

# ----------------------------
# Relaxation Phase
# ----------------------------
fix boxrelax all box/relax x 0.0 y 0.0 vmax 0.001
minimize 1.0e-6 1.0e-9 1000 10000

CITE-CITE-CITE-CITE-CITE-CITE-CITE-CITE-CITE-CITE-CITE-CITE-CITE

Your simulation uses code contributions which should be cited:

- Type Label Framework: https://doi.org/10.1021/acs.jpcb.3c08419

@Article{Gissinger24,
 author = {Jacob R. Gissinger, Ilia Nikiforov, Yaser Afshar, Brendon Waters, Moon-ki Choi, Daniel S. Karls, Alexander Stukowski, Wonpil Im, Hendrik Heinz, Axel Kohlmeyer, and Ellad B. Tadmor},
 title = {Type Label Framework for Bonded Force Fields in LAMMPS},
 journal = {J. Phys. Chem. B},
 year =    2024,
 volume =  128,
 number =  13,
 pages =   {3282–-3297}
}

- pair reaxff command: doi:10.1016/j.parco.2011.08.005

@Article{Aktulga12,
 author = {H. M. Aktulga and J. C. Fogarty and S. A. Pandit and A. Y. Grama},
 title = {Parallel Reactive Molecular Dynamics: {N}umerical Methods and Algorithmic Techniques},
 journal = {Parallel Computing},
 year =    2012,
 volume =  38,
 number =  {4--5},
 pages =   {245--259}
}

- fix qeq/reaxff command: doi:10.1016/j.parco.2011.08.005

@Article{Aktulga12,
 author = {H. M. Aktulga and J. C. Fogarty and S. A. Pandit and A. Y. Grama},
 title = {Parallel Reactive Molecular Dynamics: {N}umerical Methods and Algorithmic Techniques},
 journal = {Parallel Computing},
 year =    2012,
 volume =  38,
 pages =   {245--259}
}

CITE-CITE-CITE-CITE-CITE-CITE-CITE-CITE-CITE-CITE-CITE-CITE-CITE

Neighbor list info ...
  update: every = 1 steps, delay = 0 steps, check = yes
  max neighbors/atom: 2000, page size: 100000
  master list distance cutoff = 12
  ghost atom cutoff = 12
  binsize = 6, bins = 16 16 14
  2 neighbor lists, perpetual/occasional/extra = 2 0 0
  (1) pair reaxff, perpetual
      attributes: half, newton off, ghost
      pair build: half/bin/ghost/newtoff
      stencil: full/ghost/bin/3d
      bin: standard
  (2) fix qeq/reaxff, perpetual, copy from (1)
      attributes: half, newton off
      pair build: copy
      stencil: none
      bin: none
WARNING: Energy due to 3 extra global DOFs will be included in minimizer energies
 (src/min.cpp:219)
Per MPI rank memory allocation (min/avg/max) = 418.3 | 418.3 | 418.3 Mbytes
   Step          Temp          E_pair         E_mol          TotEng         Press          Volume    
         0   0             -1182617.7      0             -1182617.7      115541.11      733717.82    
        13   0             -1216351.4      0             -1216351.4     -451.9433       749408.82    
Loop time of 8.07421 on 1 procs for 13 steps with 6688 atoms

99.1% CPU use with 1 MPI tasks x 1 OpenMP threads

Minimization stats:
  Stopping criterion = energy tolerance
  Energy initial, next-to-last, final = 
     -1182617.71059244  -1216351.21576779    -1216351.370386
  Force two-norm initial, final = 2630380.6 2920.2487
  Force max component initial, final = 1860015.6 2108.622
  Final line search alpha, max atom move = 1.2398753e-07 0.00026144283
  Iterations, force evaluations = 13 16

MPI task timing breakdown:
Section |  min time  |  avg time  |  max time  |%varavg| %total
---------------------------------------------------------------
Pair    | 8.0518     | 8.0518     | 8.0518     |   0.0 | 99.72
Neigh   | 0.015894   | 0.015894   | 0.015894   |   0.0 |  0.20
Comm    | 0.000277   | 0.000277   | 0.000277   |   0.0 |  0.00
Output  | 0          | 0          | 0          |   0.0 |  0.00
Modify  | 1.8e-05    | 1.8e-05    | 1.8e-05    |   0.0 |  0.00
Other   |            | 0.006252   |            |       |  0.08

Nlocal:           6688 ave        6688 max        6688 min
Histogram: 1 0 0 0 0 0 0 0 0 0
Nghost:           3762 ave        3762 max        3762 min
Histogram: 1 0 0 0 0 0 0 0 0 0
Neighs:     1.2088e+06 ave  1.2088e+06 max  1.2088e+06 min
Histogram: 1 0 0 0 0 0 0 0 0 0

Total # of neighbors = 1208796
Ave neighs/atom = 180.74103
Neighbor list builds = 1
Dangerous builds = 0
unfix boxrelax

velocity all create ${T} 4928459 mom yes rot yes dist gaussian
velocity all create 700 4928459 mom yes rot yes dist gaussian

# Soft start: Langevin thermostat + NVE
fix pre_relax all nve
fix temp_relax all langevin ${T} ${T} 100.0 123456
fix temp_relax all langevin 700 ${T} 100.0 123456
fix temp_relax all langevin 700 700 100.0 123456
thermo 50
timestep 0.5
run 3000
Per MPI rank memory allocation (min/avg/max) = 417.2 | 417.2 | 417.2 Mbytes
   Step          Temp          E_pair         E_mol          TotEng         Press     
        13   700           -1216351.4      0             -1202398.5      399.15106    
        50   411.87864     -1208041.5      0             -1199831.7      10741.841    
       100   435.66581     -1205726.3      0             -1197042.3      11834.863    
       150   493.54234     -1204608.9      0             -1194771.3      11325.251    
       200   545.81065     -1203973.8      0             -1193094.4      11924.41     
       250   571.91325     -1202882.6      0             -1191482.8      12298.286    
       300   609.1276      -1202452.5      0             -1190311        11882.032    
       350   628.46642     -1201754.5      0             -1189227.4      12001.778    
       400   644.74008     -1201370        0             -1188518.6      11667.334    
       450   662.6514      -1201009.1      0             -1187800.6      10800.959    
       500   658.42402     -1200592.1      0             -1187468        10940.642    
       550   676.03943     -1200703.5      0             -1187228.2      10166.89     
       600   688.53013     -1200496.1      0             -1186771.9      9674.6555    
       650   679.2766      -1200218.3      0             -1186678.5      9243.3754    
       700   693.42429     -1200228.5      0             -1186406.7      8668.939     
       750   680.04703     -1199918.5      0             -1186363.3      8254.7376    
       800   696.44507     -1200110.5      0             -1186228.5      8451.9238    
       850   704.25146     -1200051.1      0             -1186013.5      8044.4836    
       900   702.84406     -1200049.1      0             -1186039.6      7204.4429    
       950   694.61946     -1199985.3      0             -1186139.6      7064.4586    
      1000   700.36353     -1200245.3      0             -1186285.2      6866.5127    
      1050   696.57933     -1200149.6      0             -1186264.9      6346.9508    
      1100   690.17339     -1200078.1      0             -1186321.1      6772.3256    
      1150   687.87286     -1199968.7      0             -1186257.5      6265.2202    
      1200   703.63628     -1200147.6      0             -1186122.3      6116.7379    
      1250   702.06791     -1200115.1      0             -1186121        5841.537     
      1300   698.46504     -1200125.4      0             -1186203.1      5810.9612    
      1350   701.46619     -1200277.8      0             -1186295.7      5716.9338    
      1400   702.51763     -1200222.7      0             -1186219.7      5357.9859    
      1450   701.34593     -1200138        0             -1186158.3      5159.4746    
      1500   699.74871     -1200195.6      0             -1186247.7      5444.5627    
      1550   690.87481     -1200099.7      0             -1186328.7      5183.3246    
      1600   703.83789     -1200333.9      0             -1186304.6      5149.8149    
      1650   700.06708     -1200301        0             -1186346.8      4992.3233    
      1700   699.41991     -1200137.4      0             -1186196.1      5054.9892    
      1750   694.35138     -1200164.2      0             -1186323.9      5259.9287    
      1800   704.95034     -1200347.7      0             -1186296.2      5210.9881    
      1850   704.05765     -1200169.9      0             -1186136.1      5116.0075    
      1900   700.25373     -1200112.8      0             -1186154.9      5332.8715    
      1950   709.75865     -1200150.9      0             -1186003.5      4948.751     
      2000   701.43795     -1200097.1      0             -1186115.6      4809.6241    
      2050   699.0193      -1200181.8      0             -1186248.5      5077.1789    
      2100   688.09519     -1200209.6      0             -1186494        4852.2567    
      2150   699.72076     -1200430.6      0             -1186483.3      4999.7119    
      2200   709.33594     -1200551.7      0             -1186412.7      5329.7844    
      2250   701.37696     -1200534.1      0             -1186553.7      5174.0795    
      2300   708.56055     -1200568.5      0             -1186445        4942.4796    
      2350   698.43645     -1200291.2      0             -1186369.5      5058.5864    
      2400   692.55024     -1200154.8      0             -1186350.4      4836.7457    
      2450   700.41247     -1200309.6      0             -1186348.5      4733.368     
      2500   703.75604     -1200469.3      0             -1186441.5      4598.361     
      2550   708.54974     -1200460.6      0             -1186337.3      4682.5643    
      2600   699.89334     -1200415.6      0             -1186464.8      4425.0058    
      2650   705.12789     -1200469.6      0             -1186414.5      4688.1844    
      2700   702.4069      -1200475.4      0             -1186474.6      4419.0787    
      2750   701.26125     -1200554.1      0             -1186576.1      4204.1043    
      2800   696.64537     -1200327.6      0             -1186441.6      4311.4916    
      2850   695.11314     -1200295.8      0             -1186440.3      4036.2269    
      2900   700.49253     -1200366.1      0             -1186403.4      4075.3194    
      2950   699.50319     -1200294.9      0             -1186352        4035.464     
      3000   697.91283     -1200327.5      0             -1186416.2      4032.763     
      3013   692.49655     -1200259.7      0             -1186456.4      3952.141     
Loop time of 1818.04 on 1 procs for 3000 steps with 6688 atoms

Performance: 0.071 ns/day, 336.674 hours/ns, 1.650 timesteps/s, 11.036 katom-step/s
98.7% CPU use with 1 MPI tasks x 1 OpenMP threads

MPI task timing breakdown:
Section |  min time  |  avg time  |  max time  |%varavg| %total
---------------------------------------------------------------
Pair    | 1807.5     | 1807.5     | 1807.5     |   0.0 | 99.42
Neigh   | 0.23659    | 0.23659    | 0.23659    |   0.0 |  0.01
Comm    | 0.067202   | 0.067202   | 0.067202   |   0.0 |  0.00
Output  | 0.02307    | 0.02307    | 0.02307    |   0.0 |  0.00
Modify  | 10.158     | 10.158     | 10.158     |   0.0 |  0.56
Other   |            | 0.07052    |            |       |  0.00

Nlocal:           6688 ave        6688 max        6688 min
Histogram: 1 0 0 0 0 0 0 0 0 0
Nghost:           3764 ave        3764 max        3764 min
Histogram: 1 0 0 0 0 0 0 0 0 0
Neighs:    1.19832e+06 ave 1.19832e+06 max 1.19832e+06 min
Histogram: 1 0 0 0 0 0 0 0 0 0

Total # of neighbors = 1198325
Ave neighs/atom = 179.17539
Neighbor list builds = 10
Dangerous builds = 0
unfix pre_relax
unfix temp_relax

# Adding F atoms
region above_graphene block 3 93 3 93 18 25 units box
region below_graphene block 3 93 3 93 -25 -18 units box
create_atoms 2 random 200 12345 above_graphene overlap 1.5
Created 200 atoms
  using lattice units in orthogonal box = (-0.34616894 -0.36769265 -42) to (93.976369 94.217693 42)
  create_atoms CPU = 0.016 seconds
create_atoms 2 random 200 67890 below_graphene overlap 1.5
Created 200 atoms
  using lattice units in orthogonal box = (-0.34616894 -0.36769265 -42) to (93.976369 94.217693 42)
  create_atoms CPU = 0.011 seconds
group gas type 2
400 atoms in group gas
velocity gas create ${T} 4928460 mom yes rot yes dist gaussian
velocity gas create 700 4928460 mom yes rot yes dist gaussian

compute tgas gas temp

# ----------------------------
# Main Simulation Phase
# ----------------------------

# Switch to full NVT
fix nvt_sim all nvt temp ${T} ${T} 50
fix nvt_sim all nvt temp 700 ${T} 50
fix nvt_sim all nvt temp 700 700 50

# Bond analysis
fix reax_bonds all reaxff/bonds 50 bonds.reax

# Output settings
dump mydmp all custom 500 dump.lammpstrj id type x y z q
thermo 50

run 50000
Per MPI rank memory allocation (min/avg/max) = 421.9 | 421.9 | 421.9 Mbytes
   Step          Temp          E_pair         E_mol          TotEng         Press     
      3013   692.82128     -1200216.3      0             -1185580.4      3923.3201    
      3050   727.63833     -1200958.3      0             -1185587        4095.452     
      3100   707.01376     -1201636.8      0             -1186701.1      4137.362     
      3150   715.35565     -1202039.2      0             -1186927.3      4719.268     
      3200   706.10765     -1202009.2      0             -1187092.7      4626.2896    
      3250   699.24475     -1202051        0             -1187279.5      4360.2306    
      3300   701.44822     -1202266        0             -1187447.9      4251.8232    
      3350   703.03349     -1202440.9      0             -1187589.3      4267.2623    
      3400   693.34401     -1202350.3      0             -1187703.4      3982.7266    
      3450   700.23383     -1202532.8      0             -1187740.4      4403.8682    
      3500   703.91853     -1202623.5      0             -1187753.3      3839.4939    
      3550   699.25012     -1202521.2      0             -1187749.6      3803.5621    
      3600   698.04876     -1202489.5      0             -1187743.2      3453.2233    
      3650   701.12688     -1202520.9      0             -1187709.6      3168.9357    
      3700   705.77745     -1202563.6      0             -1187654        2831.0776    
      3750   702.31373     -1202444.5      0             -1187608.1      2743.5662    
      3800   709.46132     -1202582        0             -1187594.6      2395.963     
      3850   703.33783     -1202485.1      0             -1187627.1      2156.6957    
      3900   697.08733     -1202460        0             -1187734        1849.7894    
      3950   700.76273     -1202686.5      0             -1187882.9      1508.9881    
      4000   691.50773     -1202617.8      0             -1188009.7      1572.449     
      4050   691.47596     -1202670.9      0             -1188063.5      1729.5187    
      4100   699.33686     -1202812.7      0             -1188039.2      1954.9033    
      4150   699.95052     -1202759.8      0             -1187973.4      2131.496     
      4200   704.08182     -1202709.2      0             -1187835.4      1992.0564    
      4250   708.47098     -1202579.8      0             -1187613.4      2094.5961    
      4300   717.44394     -1202633.4      0             -1187477.4      2002.515     
      4350   714.91711     -1202590.2      0             -1187487.6      2534.3347    
      4400   713.55975     -1202668.3      0             -1187594.4      2659.2527    
      4450   706.2494      -1202646.6      0             -1187727.1      2665.4276    
      4500   694.48411     -1202506.5      0             -1187835.5      2772.199     
      4550   702.1069      -1202733.6      0             -1187901.6      3133.7235    
      4600   698.86849     -1202741.2      0             -1187977.6      3004.4066    
      4650   694.87258     -1202724.6      0             -1188045.4      3025.8261    
      4700   699.27566     -1202857.1      0             -1188084.9      3042.7448    
      4750   697.25777     -1202815.2      0             -1188085.6      3140.4983    
      4800   698.3178      -1202821.6      0             -1188069.7      3042.1492    
      4850   701.07123     -1202836.1      0             -1188026        3136.6036    
      4900   709.12311     -1202947.9      0             -1187967.7      2946.0833    
      4950   706.48017     -1202854.5      0             -1187930.1      2888.4699    
      5000   701.98026     -1202772.3      0             -1187943        2707.4187    
      5050   705.1239      -1202916.9      0             -1188021.2      2683.7939    
      5100   698.91747     -1202929.7      0             -1188165.1      2597.1006    
      5150   695.69961     -1203022.4      0             -1188325.7      2653.1493    
      5200   690.79004     -1203018.9      0             -1188426        2487.2047    
      5250   697.90025     -1203209.9      0             -1188466.8      2207.1623    
      5300   697.03958     -1203176.5      0             -1188451.5      2277.8389    
      5350   703.40889     -1203267.6      0             -1188408.1      1826.7795    
      5400   702.99716     -1203192.3      0             -1188341.5      1891.3129    
      5450   710.15862     -1203302.3      0             -1188300.2      1521.7634    
      5500   703.83624     -1203178.2      0             -1188309.6      1296.9846    
      5550   706.46774     -1203344.6      0             -1188420.4      1240.5272    
      5600   707.07814     -1203555.9      0             -1188618.9      919.33627    
      5650   685.9241      -1203264.9      0             -1188774.7      662.30225    
      5700   688.12804     -1203386.8      0             -1188850.1      750.63006    
      5750   690.97174     -1203483.2      0             -1188886.4      801.39117    
      5800   691.46952     -1203508.2      0             -1188900.9      690.78281    
      5850   693.69675     -1203490.4      0             -1188836.1      874.00439    
      5900   702.19993     -1203529.3      0             -1188695.3      912.81931    
      5950   697.63304     -1203302.9      0             -1188565.4      1161.9056    
      6000   700.35577     -1203278.1      0             -1188483.1      1355.1779    
      6050   716.22845     -1203628.8      0             -1188498.4      1424.1587    
      6100   709.75872     -1203656.8      0             -1188663.2      1758.4462    
      6150   707.97052     -1203893        0             -1188937.1      1493.5434    
      6200   689.95249     -1203627.1      0             -1189051.9      1592.0987    
      6250   706.85989     -1204025.2      0             -1189092.8      1730.9648    
      6300   707.794       -1204133.8      0             -1189181.7      1866.4736    
      6350   701.48147     -1204123.7      0             -1189304.9      1963.5308    
      6400   706.39378     -1204348.1      0             -1189425.5      2114.5294    
      6450   699.70107     -1204313.8      0             -1189532.6      2041.0164    
      6500   700.05282     -1204404        0             -1189615.4      1901.1495    
      6550   699.83459     -1204444.7      0             -1189660.7      2232.0507    
      6600   698.0591      -1204460.1      0             -1189713.6      1880.2797    
      6650   695.5823      -1204426.5      0             -1189732.4      1732.1608    
      6700   700.09696     -1204496        0             -1189706.4      2047.8075    
      6750   700.1326      -1204386.3      0             -1189596        1886.6081    
      6800   712.36501     -1204521.4      0             -1189472.7      1839.2607    
      6850   714.75298     -1204553.8      0             -1189454.7      1772.0289    
      6900   708.49943     -1204581.5      0             -1189614.5      1785.109     
      6950   705.93056     -1204753.3      0             -1189840.5      1409.5304    
      7000   708.62459     -1204952.1      0             -1189982.4      1450.8426    
      7050   701.76301     -1204938        0             -1190113.2      1349.9595    
      7100   709.11638     -1205242.2      0             -1190262.1      1151.217     
      7150   702.46994     -1205224.6      0             -1190384.9      1228.1184    
      7200   694.95581     -1205205.1      0             -1190524.1      1072.6061    
      7250   712.1538      -1205654        0             -1190609.7      988.67674    
      7300   710.58918     -1205708.8      0             -1190697.6      1519.2144    
      7350   699.021       -1205563.4      0             -1190796.6      1437.4746    
      7400   715.2179      -1205982.2      0             -1190873.2      1485.6832    
      7450   696.73005     -1205696.7      0             -1190978.3      1826.0887    
      7500   703.6105      -1205963.6      0             -1191099.9      1807.3905    
      7550   694.52898     -1205891.9      0             -1191220        1898.4045    
      7600   699.9759      -1206097.2      0             -1191310.2      1467.596     
      7650   687.62877     -1205869.9      0             -1191343.8      1679.0035    
      7700   704.0308      -1206231.1      0             -1191358.4      1657.507     
      7750   693.94086     -1206044.6      0             -1191385.1      1100.9467    
      7800   706.75626     -1206355.3      0             -1191425.1      1628.5207    
      7850   705.30893     -1206411.9      0             -1191512.2      960.98131    
      7900   708.65923     -1206612.8      0             -1191642.3      1096.9402    
      7950   696.63429     -1206486.6      0             -1191770.2      1224.0462    
      8000   694.71573     -1206537.3      0             -1191861.4      923.74051    
      8050   685.5043      -1206346.9      0             -1191865.6      1105.3262    
      8100   691.22551     -1206420        0             -1191817.9      988.83194    
      8150   694.70809     -1206336.4      0             -1191660.7      1146.5255    
      8200   716.92209     -1206526.3      0             -1191381.3      1132.6465    
      8250   717.57303     -1206477.3      0             -1191318.6      1667.3905    
      8300   710.19348     -1206414.4      0             -1191411.6      1927.2074    
      8350   712.35169     -1206599.1      0             -1191550.6      1805.2676    
      8400   712.1116      -1206774.5      0             -1191731.1      1914.3995    
      8450   708.33906     -1206826.1      0             -1191862.5      1802.9208    
      8500   696.14543     -1206675.5      0             -1191969.4      1733.3271    
      8550   702.91045     -1206873.5      0             -1192024.6      2087.5008    
      8600   702.18922     -1206894.9      0             -1192061.1      1875.3795    
      8650   692.80837     -1206747.6      0             -1192112        1446.716     
      8700   699.37693     -1206947.6      0             -1192173.3      1322.1438    
      8750   694.68654     -1206916.9      0             -1192241.6      1139.3649    
      8800   695.01104     -1207029.9      0             -1192347.7      1208.0178    
      8850   703.18399     -1207348.8      0             -1192494.1      1061.3       
      8900   695.8834      -1207356.1      0             -1192655.6      824.61193    
      8950   687.06766     -1207275.6      0             -1192761.3      675.36861    
      9000   695.47724     -1207467.3      0             -1192775.4      605.7722     
      9050   697.14796     -1207474.6      0             -1192747.4     -40.847446    
      9100   700.37198     -1207498.3      0             -1192703       -97.29551     
      9150   706.7354      -1207548.1      0             -1192618.3     -218.8979     
      9200   705.62354     -1207385.6      0             -1192479.3     -781.25769    
      9250   714.91012     -1207408.8      0             -1192306.3     -815.95369    
      9300   718.07434     -1207445.6      0             -1192276.3     -738.77446    
      9350   704.77061     -1207322.9      0             -1192434.6     -734.1431     
      9400   707.97434     -1207608.3      0             -1192652.3     -947.30411    
      9450   711.83766     -1207844.3      0             -1192806.8     -722.66615    
      9500   706.17267     -1207859.4      0             -1192941.5     -960.68897    
      9550   707.35143     -1207994.1      0             -1193051.3     -563.61317    
      9600   700.18966     -1207977.1      0             -1193185.6     -888.67464    
      9650   702.60187     -1208162.9      0             -1193320.5     -587.25759    
      9700   703.42423     -1208262        0             -1193402.1     -791.00761    
      9750   701.24903     -1208245.9      0             -1193432       -731.10312    
      9800   694.3736      -1208080.7      0             -1193412       -496.39697    
      9850   706.04791     -1208227        0             -1193311.8     -324.73666    
      9900   704.54967     -1208014.9      0             -1193131.3     -580.29721    
      9950   711.75547     -1208009.3      0             -1192973.5      75.69534     
     10000   702.2882      -1207781.4      0             -1192945.6      12.919152    
     10050   709.16564     -1207984.9      0             -1193003.8      190.92647    
     10100   708.94431     -1208090.2      0             -1193113.7     -87.363567    
     10150   708.48839     -1208197.6      0             -1193230.8      595.54563    
     10200   704.15079     -1208212.3      0             -1193337.1      961.32957    
     10250   712.3045      -1208487.2      0             -1193439.7      1103.3803    
     10300   707.91514     -1208491.4      0             -1193536.7      1678.7613    
     10350   705.27809     -1208573.2      0             -1193674.2      1508.7859    
     10400   708.04612     -1208778.4      0             -1193820.9      1755.1029    
     10450   704.46428     -1208806.9      0             -1193925.1      1743.813     
     10500   701.04289     -1208807.4      0             -1193997.9      1574.6733    
     10550   705.08017     -1208922.1      0             -1194027.3      1614.2442    
     10600   703.35916     -1208916        0             -1194057.5      1627.1915    
     10650   698.03228     -1208820        0             -1194074.1      1926.0583    
     10700   703.33175     -1208930.6      0             -1194072.7      1483.7095    
     10750   695.46148     -1208790        0             -1194098.4      1483.8109    
     10800   703.2902      -1209036.7      0             -1194179.7      1330.0647    
     10850   695.1134      -1208994        0             -1194309.7      1890.8467    
     10900   701.05462     -1209252.5      0             -1194442.7      1530.9236    
     10950   705.7689      -1209421.8      0             -1194512.5      1621.5341    
     11000   690.97206     -1209133.4      0             -1194536.6      1247.4231    
     11050   697.99812     -1209172.5      0             -1194427.2      1633.6716    
     11100   696.79661     -1208977.8      0             -1194257.9      1882.0836    
     11150   703.25445     -1208975.8      0             -1194119.5      1198.677     
     11200   707.78099     -1209031        0             -1194079.2      1217.7475    
     11250   710.52996     -1209079.2      0             -1194069.3      1160.0316    
     11300   704.66632     -1208983.1      0             -1194097        1027.2895    
     11350   692.74515     -1208773.3      0             -1194139.1      843.33112    
     11400   697.44197     -1208914.7      0             -1194181.3      979.54002    
     11450   689.3423      -1208781        0             -1194218.6      1245.3435    
     11500   696.92728     -1209017.1      0             -1194294.5      1462.5337    
     11550   683.82578     -1208943.1      0             -1194497.3      1933.154     
     11600   679.63585     -1209063.6      0             -1194706.3      1574.8687    
     11650   684.77833     -1209234.9      0             -1194768.9      1742.0368    
     11700   690.29799     -1209293        0             -1194710.4      1860.0884    
     11750   692.02931     -1209201.3      0             -1194582.2      2038.4455    
     11800   702.97314     -1209294.2      0             -1194443.9      1918.7057    
     11850   693.64548     -1209011        0             -1194357.8      2115.6406    
     11900   708.43659     -1209319.5      0             -1194353.8      1894.7628    
     11950   704.42558     -1209282.5      0             -1194401.6      2260.2669    
     12000   709.17801     -1209474.9      0             -1194493.5      2236.008     
     12050   701.78022     -1209420.9      0             -1194595.8      2263.057     
     12100   697.43705     -1209430.1      0             -1194696.8      2343.1099    
     12150   697.11175     -1209474.1      0             -1194747.6      2459.2647    
     12200   702.02001     -1209607.2      0             -1194777        2215.0203    
     12250   700.02156     -1209610.7      0             -1194822.7      1873.9491    
     12300   710.42661     -1209892.9      0             -1194885.2      1557.6398    
     12350   696.81181     -1209656.7      0             -1194936.5      1772.3134    
     12400   692.63404     -1209767.5      0             -1195135.6      1115.3797    
     12450   685.24848     -1209893.9      0             -1195418        1395.3474    
     12500   694.11556     -1210165.1      0             -1195501.9      745.46612    
     12550   688.49545     -1210028        0             -1195483.5      573.01788    
     12600   693.73891     -1210026.1      0             -1195370.9      723.65275    
     12650   697.9391      -1209964.5      0             -1195220.5      992.09033    
     12700   695.71548     -1209795.1      0             -1195098.1     -56.608446    
     12750   699.51544     -1209773        0             -1194995.7      163.66722    
     12800   704.95528     -1209821.9      0             -1194929.8     -97.97012     
     12850   707.66059     -1209893.1      0             -1194943.8     -293.45522    
     12900   704.40534     -1209948.2      0             -1195067.6     -164.31018    
     12950   702.42799     -1210079.7      0             -1195241       -139.10043    
     13000   702.33049     -1210207.3      0             -1195370.6     -462.7696     
     13050   698.15568     -1210148.4      0             -1195399.9     -355.06074    
     13100   699.71396     -1210203.8      0             -1195422.4     -470.00075    
     13150   707.51284     -1210375.8      0             -1195429.6     -91.694236    
     13200   699.34949     -1210250.7      0             -1195476.9     -75.414847    
     13250   695.9843      -1210204.5      0             -1195501.8     -115.25075    
     13300   707.53577     -1210489.9      0             -1195543.2      313.40591    
     13350   698.37094     -1210342.2      0             -1195589.1      437.93491    
     13400   703.42967     -1210505.7      0             -1195645.8      478.38341    
     13450   690.08008     -1210266.3      0             -1195688.3      609.11641    
     13500   696.81267     -1210404.1      0             -1195683.9      698.85105    
     13550   694.77481     -1210270.2      0             -1195593.1      680.07061    
     13600   704.44743     -1210345.7      0             -1195464.2      481.97218    
     13650   699.1549      -1210092.1      0             -1195322.4      954.59479    
     13700   705.33689     -1210125.8      0             -1195225.6      940.05568    
     13750   703.1574      -1210032.5      0             -1195178.3      1029.9662    
     13800   707.89583     -1210186.9      0             -1195232.6      975.70335    
     13850   711.38403     -1210417.4      0             -1195389.5      1397.8863    
     13900   703.11938     -1210437.8      0             -1195584.4      1490.7112    
     13950   705.70962     -1210563.4      0             -1195655.2      1255.2283    
     14000   705.33287     -1210611.5      0             -1195711.4      1461.3494    
     14050   699.93534     -1210565.7      0             -1195779.6      1451.1089    
     14100   696.70699     -1210576.2      0             -1195858.3      1028.91      
     14150   696.99103     -1210653.6      0             -1195929.7      1275.3596    
     14200   696.4427      -1210729        0             -1196016.7      1514.1411    
     14250   693.24524     -1210738.3      0             -1196093.5      1496.8184    
     14300   695.50956     -1210837.3      0             -1196144.6      1254.4292    
     14350   693.70599     -1210775.4      0             -1196120.9      1734.0372    
     14400   699.24756     -1210879.4      0             -1196107.8      1250.7287    
     14450   705.79203     -1210965.2      0             -1196055.4      1540.6637    
     14500   690.96907     -1210623.3      0             -1196026.6      989.10032    
     14550   705.72442     -1210889.8      0             -1195981.4      1177.4433    
     14600   715.18602     -1211085.5      0             -1195977.2      737.1848     
     14650   706.6715      -1210950.4      0             -1196022        1311.5538    
     14700   696.79525     -1210885.5      0             -1196165.7      1265.9406    
     14750   703.29211     -1211204.4      0             -1196347.3      1486.8232    
     14800   700.52125     -1211278.3      0             -1196479.8      936.21233    
     14850   694.94565     -1211213        0             -1196532.3      865.57727    
     14900   697.53834     -1211248        0             -1196512.5      920.69372    
     14950   698.79097     -1211209.4      0             -1196447.4      1148.222     
     15000   698.84458     -1211156        0             -1196392.9      1244.8964    
     15050   698.34051     -1211063.9      0             -1196311.5      737.44167    
     15100   706.33993     -1211102.7      0             -1196181.3      799.58932    
     15150   712.30569     -1211049        0             -1196001.5      710.87242    
     15200   703.16609     -1210692.2      0             -1195837.8      538.12353    
     15250   718.73377     -1210946.6      0             -1195763.4      592.83358    
     15300   707.23123     -1210782.9      0             -1195842.7      773.15816    
     15350   713.54396     -1211186        0             -1196112.4      1445.3701    
     15400   702.80093     -1211136.1      0             -1196289.5      751.78209    
     15450   704.01314     -1211230.2      0             -1196357.9      1299.2251    
     15500   701.51374     -1211246.6      0             -1196427.2      1154.0293    
     15550   707.98686     -1211458.9      0             -1196502.7      1432.1527    
     15600   704.77088     -1211469.8      0             -1196581.5      1525.2127    
     15650   695.79829     -1211358.4      0             -1196659.7      941.85582    
     15700   706.70142     -1211620.8      0             -1196691.8      1201.0532    
     15750   697.58348     -1211393.6      0             -1196657.2      1201.7149    
     15800   703.00593     -1211392.3      0             -1196541.3      1435.2987    
     15850   709.9801      -1211388.4      0             -1196390        1896.324     
     15900   714.89166     -1211388.1      0             -1196286        1522.8693    
     15950   708.20191     -1211216.8      0             -1196256        1168.3135    
     16000   712.26503     -1211366.6      0             -1196320        908.6087     
     16050   706.78787     -1211453.8      0             -1196522.9      1150.5678    
     16100   697.00372     -1211495.5      0             -1196771.3      706.94278    
     16150   686.68031     -1211355.2      0             -1196849.1      847.15033    
     16200   688.90002     -1211401.3      0             -1196848.3      632.96488    
     16250   696.42783     -1211497        0             -1196784.9      570.44126    
     16300   701.22633     -1211515.5      0             -1196702.1      811.2302     
     16350   709.88592     -1211585.7      0             -1196589.3      576.00614    
     16400   706.25658     -1211443.7      0             -1196524.1      683.82316    
     16450   703.18177     -1211363.8      0             -1196509.1      303.2918     
     16500   706.25184     -1211439.9      0             -1196520.4      685.54856    
     16550   702.0099      -1211456.5      0             -1196626.6      459.09379    
     16600   696.46589     -1211549.4      0             -1196836.6      263.33317    
     16650   702.15448     -1211831.4      0             -1196998.4      770.48904    
     16700   701.49678     -1211896.2      0             -1197077        907.6117     
     16750   692.89337     -1211740.3      0             -1197102.9      401.24053    
     16800   699.8079      -1211886.8      0             -1197103.4      216.60439    
     16850   690.10246     -1211697.1      0             -1197118.7     -5.128151     
     16900   694.87869     -1211770.8      0             -1197091.5      197.16546    
     16950   703.80707     -1211870.7      0             -1197002.7      151.07598    
     17000   701.55437     -1211649.7      0             -1196829.4      688.25016    
     17050   713.23308     -1211756.5      0             -1196689.5      400.31755    
     17100   706.92955     -1211591.8      0             -1196657.9      1041.5498    
     17150   722.08655     -1211979.1      0             -1196725        1056.1248    
     17200   705.35022     -1211809.3      0             -1196908.8      1060.3071    
     17250   707.11445     -1212011.6      0             -1197073.8      1590.3188    
     17300   704.2504      -1212026.3      0             -1197149        1781.7061    
     17350   702.09879     -1212043.8      0             -1197211.9      1146.5247    
     17400   695.16421     -1211951.1      0             -1197265.7      1249.6057    
     17450   697.96742     -1212034.4      0             -1197289.8      729.43523    
     17500   696.32788     -1212001.1      0             -1197291.1      859.29711    
     17550   709.66582     -1212277.9      0             -1197286.2      656.96684    
     17600   694.7144      -1211990.4      0             -1197314.6      1048.8558    
     17650   698.22349     -1212040.9      0             -1197290.9      525.74955    
     17700   699.45014     -1212025.2      0             -1197249.3     -63.990028    
     17750   704.74328     -1212080        0             -1197192.3     -197.14646    
     17800   706.61667     -1212109.6      0             -1197182.3     -319.51656    
     17850   709.37034     -1212212.6      0             -1197227.2     -86.826413    
     17900   693.69724     -1212012.5      0             -1197358.1     -85.885716    
     17950   703.71882     -1212385.3      0             -1197519.2     -380.41793    
     18000   697.42446     -1212377.6      0             -1197644.5     -210.13043    
     18050   706.46496     -1212644.9      0             -1197720.8      78.31777     
     18100   693.22821     -1212417.1      0             -1197772.7     -435.48757    
     18150   688.47622     -1212339.1      0             -1197795       -450.48259    
     18200   702.02659     -1212588.9      0             -1197758.6      187.36344    
     18250   699.9216      -1212504.1      0             -1197718.3     -317.96461    
     18300   695.51877     -1212301.3      0             -1197608.5      606.31933    
     18350   713.06147     -1212403.8      0             -1197340.3      469.19176    
     18400   710.75603     -1212220.6      0             -1197205.9      113.02848    
     18450   714.46583     -1212341.3      0             -1197248.2      42.398702    
     18500   698.69872     -1212148.9      0             -1197388.9      83.842195    
     18550   691.75537     -1212174        0             -1197560.7      327.44417    
     18600   702.4474      -1212518.6      0             -1197679.4      352.89066    
     18650   699.11367     -1212535.1      0             -1197766.3      282.53422    
     18700   695.66867     -1212567.7      0             -1197871.7      330.84694    
     18750   697.72796     -1212708.8      0             -1197969.3      428.76456    
     18800   697.03413     -1212792.9      0             -1198068.1      631.48484    
     18850   701.70773     -1212936        0             -1198112.4      544.9815     
     18900   696.10999     -1212839.6      0             -1198134.3      1018.6719    
     18950   707.64329     -1213073.3      0             -1198124.3      483.83645    
     19000   703.29065     -1212886.9      0             -1198029.9      613.60335    
     19050   711.81563     -1212842.2      0             -1197805.1      142.54778    
     19100   712.91243     -1212713.9      0             -1197653.6      560.20158    
     19150   712.7691      -1212663.8      0             -1197606.6      883.07821    
     19200   712.24263     -1212717.7      0             -1197671.6      585.35964    
     19250   699.29596     -1212586.5      0             -1197813.9      520.19176    
     19300   701.00529     -1212778.6      0             -1197969.9      735.14953    
     19350   697.64213     -1212819.2      0             -1198081.6      294.03811    
     19400   688.45762     -1212701.9      0             -1198158.3      328.69264    
     19450   704.33489     -1213082.3      0             -1198203.2      851.50458    
     19500   693.20522     -1212906.3      0             -1198262.4      952.24306    
     19550   693.83634     -1212963.2      0             -1198305.9      588.40639    
     19600   695.33542     -1212990.4      0             -1198301.4      821.81969    
     19650   703.93657     -1213111.7      0             -1198241.1      1080.424     
     19700   709.0749      -1213053.4      0             -1198074.2      890.32933    
     19750   711.07774     -1212917        0             -1197895.5      853.40602    
     19800   717.51695     -1213006.5      0             -1197848.9      609.92302    
     19850   699.94216     -1212681.3      0             -1197895        809.09254    
     19900   701.80752     -1212856.1      0             -1198030.4      1170.1154    
     19950   701.5473      -1213017.4      0             -1198197.2      826.55878    
     20000   699.14826     -1213069.6      0             -1198300.1      454.10783    
     20050   701.95897     -1213180.1      0             -1198351.2      692.59907    
     20100   698.73316     -1213138.2      0             -1198377.5      989.92484    
     20150   701.49462     -1213188.5      0             -1198369.4      323.14201    
     20200   697.00508     -1213100.7      0             -1198376.5      410.59432    
     20250   707.58999     -1213323.7      0             -1198375.8      466.91553    
     20300   698.87208     -1213156.6      0             -1198392.9      1255.2081    
     20350   707.96728     -1213387.8      0             -1198432        1202.3421    
     20400   702.33019     -1213362.5      0             -1198525.8      1003.0311    
     20450   697.37257     -1213392.6      0             -1198660.6      1232.2941    
     20500   689.62116     -1213331.7      0             -1198763.5      1060.6742    
     20550   703.25085     -1213632.7      0             -1198776.5      1313.7421    
     20600   697.11134     -1213463.3      0             -1198736.8      1205.7822    
     20650   701.61209     -1213405.5      0             -1198583.9      1131.9211    
     20700   702.15014     -1213242.9      0             -1198409.9      1348.4714    
     20750   708.57447     -1213254.4      0             -1198285.8      1484.8243    
     20800   708.35501     -1213222.6      0             -1198258.6      1174.9914    
     20850   707.8771      -1213252        0             -1198298.1      1382.7442    
     20900   707.55177     -1213328.9      0             -1198381.9      992.74863    
     20950   701.46455     -1213266.2      0             -1198447.7      609.70327    
     21000   706.32409     -1213432        0             -1198510.9      394.33402    
     21050   705.48006     -1213492.1      0             -1198588.8      656.10414    
     21100   700.02048     -1213461        0             -1198673.1      565.30037    
     21150   700.38193     -1213530.6      0             -1198735.1      706.64447    
     21200   703.55118     -1213627.1      0             -1198764.6      0.9033658    
     21250   697.51234     -1213488.9      0             -1198754        454.23525    
     21300   705.5474      -1213642.6      0             -1198737.9      823.73121    
     21350   701.73025     -1213567.3      0             -1198743.2      684.1634     
     21400   700.71951     -1213570.1      0             -1198767.4      904.08667    
     21450   692.79914     -1213523.3      0             -1198887.9      741.86904    
     21500   701.23975     -1213917.8      0             -1199104.1      606.6612     
     21550   687.66674     -1213753.3      0             -1199226.3      505.08453    
     21600   688.28348     -1213778.1      0             -1199238.1      581.14217    
     21650   694.18984     -1213842.2      0             -1199177.5      598.41285    
     21700   702.84191     -1213887.5      0             -1199040        672.99701    
     21750   701.2553      -1213708.4      0             -1198894.3      798.57537    
     21800   708.30897     -1213772.2      0             -1198809.1      857.05682    
     21850   704.0009      -1213644.6      0             -1198772.5      890.74421    
     21900   698.91893     -1213554.6      0             -1198790        555.49405    
     21950   712.64017     -1213872.3      0             -1198817.8      773.97177    
     22000   697.31179     -1213675.4      0             -1198944.7      1479.0579    
     22050   696.50031     -1213821        0             -1199107.4      765.79723    
     22100   700.02597     -1214074.5      0             -1199286.4      1134.4351    
     22150   687.63008     -1213925.9      0             -1199399.7      1357.9367    
     22200   698.49306     -1214167.3      0             -1199411.6      1201.5274    
     22250   694.1112      -1214031.5      0             -1199368.4      1620.7712    
     22300   700.1552      -1214090.8      0             -1199300        1647.4595    
     22350   708.67481     -1214196.6      0             -1199225.8      1490.5233    
     22400   705.24362     -1214022        0             -1199123.8      1600.7548    
     22450   706.56897     -1213953.3      0             -1199027        945.13296    
     22500   710.4248      -1213956.2      0             -1198948.4      1012.8739    
     22550   702.69959     -1213778        0             -1198933.4      700.63191    
     22600   705.19441     -1213873.3      0             -1198976.1      1209.5632    
     22650   705.97675     -1214038.2      0             -1199124.4      1443.8003    
     22700   695.16885     -1214029.3      0             -1199343.8      1352.8737    
     22750   689.77441     -1214011        0             -1199439.5      1424.9078    
     22800   695.26261     -1214145.9      0             -1199458.5      1223.1493    
     22850   702.38401     -1214257.2      0             -1199419.3      1653.6738    
     22900   706.2723      -1214276.8      0             -1199356.8      1402.5907    
     22950   700.1961      -1214056.7      0             -1199265.1      1548.0687    
     23000   710.99523     -1214185.5      0             -1199165.8      1719.284     
     23050   700.2235      -1213898.3      0             -1199106.1      1451.3175    
     23100   697.57295     -1213831.5      0             -1199095.3      1613.7997    
     23150   696.35463     -1213804.6      0             -1199094.1      1433.8028    
     23200   699.71042     -1213891.3      0             -1199109.9      1242.35      
     23250   707.63409     -1214072.5      0             -1199123.8      1557.4109    
     23300   700.19085     -1213967        0             -1199175.5      1444.6023    
     23350   697.16317     -1213953.3      0             -1199225.8      1133.1846    
     23400   696.26262     -1213995.3      0             -1199286.7      1634.8857    
     23450   692.27227     -1214001.9      0             -1199377.7      1243.8883    
     23500   696.06264     -1214202        0             -1199497.7      1338.4157    
     23550   693.07958     -1214298.6      0             -1199657.3      1540.4128    
     23600   689.30911     -1214391        0             -1199829.3      1931.6601    
     23650   689.71718     -1214468.9      0             -1199898.6      1562.5863    
     23700   695.49119     -1214491.5      0             -1199799.3      1636.6898    
     23750   695.82474     -1214231.7      0             -1199532.4      1565.1018    
     23800   696.23818     -1214101.4      0             -1199393.4      1492.6433    
     23850   701.81487     -1214171.9      0             -1199346.1      875.68039    
     23900   698.41647     -1214092.9      0             -1199338.8      1447.5528    
     23950   702.39689     -1214214.9      0             -1199376.7      2220.0082    
     24000   703.01972     -1214286.1      0             -1199434.8      1403.9206    
     24050   695.76946     -1214244.5      0             -1199546.4      1113.5301    
     24100   698.35403     -1214405.8      0             -1199653.1      816.09691    
     24150   692.57105     -1214348.8      0             -1199718.2      1341.7253    
     24200   686.54002     -1214267.3      0             -1199764.1      1551.6397    
     24250   696.12548     -1214441.7      0             -1199736.1      1723.3246    
     24300   708.24741     -1214557.5      0             -1199595.8      1765.8766    
     24350   702.24491     -1214247.3      0             -1199412.3      1827.9725    
     24400   704.29982     -1214186.6      0             -1199308.3      1783.0743    
     24450   705.26251     -1214210.4      0             -1199311.8      1913.6871    
     24500   704.21396     -1214271.8      0             -1199395.2      1558.4472    
     24550   701.91158     -1214335.3      0             -1199507.4      1779.7907    
     24600   700.94474     -1214453.6      0             -1199646.1      1792.016     
     24650   700.32896     -1214542.1      0             -1199747.6      1632.1895    
     24700   708.58083     -1214741.2      0             -1199772.5      1581.9962    
     24750   702.32206     -1214608.8      0             -1199772.2      1588.6843    
     24800   687.84252     -1214302.9      0             -1199772.3      890.84669    
     24850   705.32914     -1214648.1      0             -1199748        792.03659    
     24900   694.51663     -1214445.7      0             -1199774        980.06921    
     24950   700.82006     -1214609.8      0             -1199805        898.07997    
     25000   709.21014     -1214870.1      0             -1199888        1159.1564    
     25050   707.24204     -1214986.5      0             -1200046        719.70749    
     25100   700.24815     -1215008        0             -1200215.3      391.98171    
     25150   696.0277      -1214966.9      0             -1200263.3      568.2035     
     25200   699.71371     -1215000.2      0             -1200218.8      560.55138    
     25250   699.83544     -1214914.2      0             -1200130.2      168.12912    
     25300   705.73913     -1214909.4      0             -1200000.7      427.79988    
     25350   694.17669     -1214548        0             -1199883.5      381.37547    
     25400   709.10359     -1214775.5      0             -1199795.7      359.4407     
     25450   704.36803     -1214636.7      0             -1199756.9     -1.0614257    
     25500   705.55197     -1214688.4      0             -1199783.7      547.54149    
     25550   702.06818     -1214663.2      0             -1199832        558.98126    
     25600   701.91933     -1214767.4      0             -1199939.3      518.69569    
     25650   686.63823     -1214530.1      0             -1200024.8      464.43273    
     25700   696.83197     -1214794.9      0             -1200074.4      823.26908    
     25750   696.65051     -1214840        0             -1200123.3      837.7431     
     25800   697.27681     -1214875.6      0             -1200145.6      306.28494    
     25850   697.69971     -1214881.4      0             -1200142.5      1122.2837    
     25900   691.19958     -1214734.3      0             -1200132.7      896.50376    
     25950   696.45042     -1214794.7      0             -1200082.2      1215.2087    
     26000   702.88766     -1214880.5      0             -1200032        1219.1707    
     26050   696.33351     -1214709.2      0             -1199999.1      1328.0351    
     26100   708.51039     -1214929.6      0             -1199962.3      1084.4656    
     26150   701.52887     -1214795.2      0             -1199975.4      549.44388    
     26200   704.62609     -1214905.1      0             -1200019.9      746.6034     
     26250   703.91612     -1215005.7      0             -1200135.5      1057.189     
     26300   695.28782     -1214979.2      0             -1200291.2      1354.9274    
     26350   692.33482     -1215019.6      0             -1200394        1235.041     
     26400   694.7181      -1215114.7      0             -1200438.8      1365.3015    
     26450   699.87178     -1215193.2      0             -1200408.4      1322.8861    
     26500   701.8097      -1215152.4      0             -1200326.7      1046.6341    
     26550   695.26346     -1214840.9      0             -1200153.5      1715.499     
     26600   711.04483     -1214932.7      0             -1199911.8      1250.4977    
     26650   715.75712     -1214949.9      0             -1199829.6      905.83508    
     26700   710.3922      -1214890.6      0             -1199883.6      949.40968    
     26750   712.95817     -1215035.2      0             -1199974        1123.8175    
     26800   701.24937     -1214936.6      0             -1200122.7      977.55942    
     26850   698.87553     -1214991.4      0             -1200227.6      464.46231    
     26900   697.94771     -1215041.3      0             -1200297.2      515.71215    
     26950   706.98765     -1215240.4      0             -1200305.3      656.64323    
     27000   701.0064      -1215133.2      0             -1200324.5      539.64018    
     27050   704.90045     -1215265.6      0             -1200374.6      1050.4144    
     27100   702.32666     -1215304.3      0             -1200467.6      516.36794    
     27150   697.27577     -1215357.3      0             -1200627.4      706.96278    
     27200   690.96442     -1215430.7      0             -1200834.1      1063.0791    
     27250   684.81651     -1215428.8      0             -1200962.1      331.85623    
     27300   691.33178     -1215565.8      0             -1200961.5      766.70041    
     27350   701.14874     -1215688.1      0             -1200876.4      669.2443     
     27400   701.813       -1215623.2      0             -1200797.4      344.46406    
     27450   696.16986     -1215447.4      0             -1200740.8      284.78721    
     27500   700.24059     -1215464.5      0             -1200671.9      204.5543     
     27550   697.36921     -1215318.6      0             -1200586.7      144.88914    
     27600   711.0891      -1215536.1      0             -1200514.4     -322.11235    
     27650   705.91535     -1215370.5      0             -1200458       -144.71919    
     27700   716.7807      -1215584.2      0             -1200442.2      151.41179    
     27750   694.36738     -1215176.1      0             -1200507.5      272.28576    
     27800   699.06125     -1215476.2      0             -1200708.5     -292.64004    
     27850   690.55966     -1215508.4      0             -1200920.3      218.97916    
     27900   692.48074     -1215647.4      0             -1201018.7     -299.05686    
     27950   704.19207     -1215849.5      0             -1200973.4      495.59291    
     28000   697.43857     -1215669.6      0             -1200936.2      529.86104    
     28050   701.27724     -1215676.8      0             -1200862.3      186.16804    
     28100   704.29903     -1215688        0             -1200809.7      377.04949    
     28150   700.76159     -1215575.5      0             -1200771.9     -131.38761    
     28200   709.68848     -1215684.6      0             -1200692.4     -76.839667    
     28250   704.72621     -1215461        0             -1200573.7     -282.88829    
     28300   714.64044     -1215549.6      0             -1200452.8      58.605293    
     28350   714.94393     -1215527.3      0             -1200424.2      143.23175    
     28400   704.71338     -1215452        0             -1200565        184.66911    
     28450   707.81741     -1215760.7      0             -1200808        148.49138    
     28500   701.40132     -1215770        0             -1200952.9      177.54936    
     28550   702.58694     -1215889.4      0             -1201047.3     -95.98603     
     28600   692.43247     -1215758.1      0             -1201130.4      124.94819    
     28650   699.04127     -1215944.2      0             -1201176.9     -280.26607    
     28700   696.89461     -1215950.3      0             -1201228.4     -141.97052    
     28750   697.07952     -1215971        0             -1201245.2     -803.54816    
     28800   695.08077     -1215926.9      0             -1201243.4     -410.49338    
     28850   706.46173     -1216090.8      0             -1201166.8     -67.830453    
     28900   701.18153     -1215842.9      0             -1201030.5     -33.366495    
     28950   709.51676     -1215844.2      0             -1200855.7     -52.025391    
     29000   713.07229     -1215871.9      0             -1200808.3     -193.95072    
     29050   704.14252     -1215679.4      0             -1200804.4      122.13773    
     29100   700.57652     -1215689.3      0             -1200889.6     -216.04046    
     29150   698.59676     -1215791.8      0             -1201034        166.87475    
     29200   701.84665     -1216059.3      0             -1201232.8      121.07758    
     29250   699.40017     -1216130.9      0             -1201356.1      353.75742    
     29300   688.48861     -1215916.1      0             -1201371.8      757.86942    
     29350   691.28682     -1215937.2      0             -1201333.8      598.02251    
     29400   702.61225     -1216109.9      0             -1201267.2      207.16154    
     29450   700.16433     -1215975.3      0             -1201184.3     -22.339786    
     29500   702.69601     -1215936.4      0             -1201091.9      316.3291     
     29550   702.07623     -1215832.1      0             -1201000.8      850.59201    
     29600   709.44481     -1215930.9      0             -1200943.8      915.90818    
     29650   703.77127     -1215794.4      0             -1200927.2      646.30155    
     29700   704.92514     -1215881.8      0             -1200990.2      595.66928    
     29750   709.2223      -1216194.3      0             -1201212        687.06118    
     29800   700.06102     -1216210.7      0             -1201421.9      841.59634    
     29850   692.87901     -1216149.7      0             -1201512.6      925.35653    
     29900   685.63518     -1215987.2      0             -1201503.2      802.06198    
     29950   702.89862     -1216265.9      0             -1201417.2      705.66713    
     30000   696.21856     -1216022.7      0             -1201315.1      923.00475    
     30050   704.88429     -1216096.8      0             -1201206.1      682.96205    
     30100   697.16526     -1215848.9      0             -1201121.3      281.89449    
     30150   705.22708     -1215983        0             -1201085.1      462.06221    
     30200   707.13937     -1216034.3      0             -1201096        896.88438    
     30250   702.72782     -1216069.6      0             -1201224.4      641.87736    
     30300   693.92012     -1216192.2      0             -1201533.1      810.21139    
     30350   692.27795     -1216281.8      0             -1201657.4      1292.2856    
     30400   692.93368     -1216303.4      0             -1201665.2      1030.8735    
     30450   686.87184     -1216104.8      0             -1201594.7      997.81886    
     30500   696.62378     -1216183.2      0             -1201467        936.26351    
     30550   695.01223     -1216006.7      0             -1201324.5      1106.9651    
     30600   699.4488      -1216011.9      0             -1201236.1      731.89686    
     30650   704.51087     -1216054.6      0             -1201171.8      597.07196    
     30700   706.6408      -1216084.4      0             -1201156.6      718.91288    
     30750   706.08264     -1216126.4      0             -1201210.4      305.64306    
     30800   694.56084     -1216010.1      0             -1201337.5      762.63969    
     30850   694.69272     -1216188.9      0             -1201513.5      736.6006     
     30900   680.70013     -1216081        0             -1201701.2      761.12422    
     30950   690.4657      -1216315.5      0             -1201729.4      403.3704     
     31000   691.28441     -1216285.7      0             -1201682.3      139.19525    
     31050   694.25764     -1216276        0             -1201609.8      681.75107    
     31100   692.02302     -1216136.9      0             -1201517.9      138.03414    
     31150   693.78688     -1216095.3      0             -1201439.1      377.50236    
     31200   704.97169     -1216230.2      0             -1201337.7      547.30946    
     31250   701.05592     -1216049.4      0             -1201239.6      422.85762    
     31300   716.23465     -1216316.9      0             -1201186.5      63.398353    
     31350   700.96209     -1215977.4      0             -1201169.5      647.55694    
     31400   697.38138     -1215933        0             -1201200.8      627.7814     
     31450   692.2014      -1215946.5      0             -1201323.7      896.1322     
     31500   690.01525     -1216127.8      0             -1201551.2      737.86363    
     31550   689.26576     -1216240.4      0             -1201679.6      859.02595    
     31600   690.72606     -1216300.9      0             -1201709.4      1671.208     
     31650   683.82963     -1216093.3      0             -1201647.4      1414.9131    
     31700   695.78523     -1216207.6      0             -1201509.1      1525.1553    
     31750   702.35691     -1216201.4      0             -1201364.1      1824.7231    
     31800   699.97724     -1216086.6      0             -1201299.6      1570.4283    
     31850   706.69283     -1216202.9      0             -1201274        1509.9018    
     31900   701.75391     -1216105        0             -1201280.4      1583.3262    
     31950   708.47611     -1216252.7      0             -1201286.1      1268.2595    
     32000   698.77452     -1216022.6      0             -1201261        1376.4622    
     32050   704.12239     -1216129.7      0             -1201255.1      1343.2722    
     32100   692.45714     -1215899.8      0             -1201271.7      966.69173    
     32150   713.48679     -1216317.6      0             -1201245.1      1067.344     
     32200   700.44832     -1216025.2      0             -1201228.2      1180.3668    
     32250   697.08514     -1215944.2      0             -1201218.3      1054.1192    
     32300   707.24331     -1216144.4      0             -1201203.9      699.65703    
     32350   701.95115     -1216048.1      0             -1201219.4      1226.771     
     32400   702.04673     -1216117.9      0             -1201287.1      1066.257     
     32450   697.49263     -1216162.6      0             -1201428        939.12774    
     32500   696.50078     -1216279        0             -1201565.5      1751.6109    
     32550   692.28138     -1216261.5      0             -1201637        751.50531    
     32600   698.71133     -1216436.3      0             -1201676        1096.0312    
     32650   702.23907     -1216479.8      0             -1201645        842.57187    
     32700   685.38861     -1215996.2      0             -1201517.3      633.58509    
     32750   705.04697     -1216147.2      0             -1201253        218.40861    
     32800   709.5145      -1216153        0             -1201164.5      489.11434    
     32850   702.5028      -1216040.7      0             -1201200.3      483.58588    
     32900   708.42843     -1216284.9      0             -1201319.3      311.35869    
     32950   703.53101     -1216297.9      0             -1201435.8      782.89363    
     33000   710.21967     -1216549.5      0             -1201546.1      1104.534     
     33050   695.74073     -1216356.5      0             -1201659        880.03567    
     33100   693.9411      -1216385.5      0             -1201725.9      932.51182    
     33150   701.96914     -1216576        0             -1201746.9      1188.1423    
     33200   690.95173     -1216339.2      0             -1201742.9      956.02126    
     33250   702.56047     -1216523.7      0             -1201682.1      1099.9346    
     33300   692.21177     -1216250.4      0             -1201627.4      650.32675    
     33350   700.69842     -1216292.6      0             -1201490.4      1298.0435    
     33400   705.17974     -1216162.8      0             -1201265.9      880.40017    
     33450   716.78709     -1216220.6      0             -1201078.4      826.66282    
     33500   718.86049     -1216283.1      0             -1201097.2      780.22029    
     33550   714.54606     -1216291        0             -1201196.2      934.9247     
     33600   709.06016     -1216337.2      0             -1201358.3      599.12671    
     33650   710.38858     -1216492.5      0             -1201485.5      897.56501    
     33700   705.88227     -1216523        0             -1201611.2      785.70494    
     33750   710.67969     -1216732.8      0             -1201719.7      868.88731    
     33800   702.00672     -1216658.1      0             -1201828.2      586.99118    
     33850   696.70121     -1216625.9      0             -1201908.1      626.46444    
     33900   693.54293     -1216599.6      0             -1201948.5      409.3503     
     33950   702.029       -1216773.5      0             -1201943.2      631.36509    
     34000   701.39828     -1216722.3      0             -1201905.2      1041.6917    
     34050   700.1039      -1216564.5      0             -1201774.8      312.61056    
     34100   706.74398     -1216495.6      0             -1201565.6      513.17503    
     34150   710.96654     -1216467.2      0             -1201448        899.67529    
     34200   703.73871     -1216319.8      0             -1201453.3      351.09422    
     34250   707.99996     -1216473.4      0             -1201516.9      107.15201    
     34300   698.96398     -1216414.2      0             -1201648.6      688.72547    
     34350   699.5101      -1216595.2      0             -1201818        901.06777    
     34400   706.65422     -1216842        0             -1201913.9      253.83235    
     34450   706.75089     -1216881.4      0             -1201951.2      976.9208     
     34500   700.80544     -1216775.7      0             -1201971.2      313.63716    
     34550   699.6192      -1216744.6      0             -1201965.2      640.76703    
     34600   704.87828     -1216828.3      0             -1201937.7      543.51982    
     34650   694.80367     -1216580.2      0             -1201902.5      275.43435    
     34700   701.50709     -1216625.1      0             -1201805.8      354.25307    
     34750   699.85485     -1216430        0             -1201645.6      52.266558    
     34800   706.65766     -1216442.7      0             -1201514.6      697.57672    
     34850   704.62185     -1216350.6      0             -1201465.5      389.32784    
     34900   706.50864     -1216463.7      0             -1201538.7      448.03914    
     34950   714.43752     -1216855.6      0             -1201763.1      291.57105    
     35000   703.78369     -1216849.5      0             -1201982.1      1144.985     
     35050   708.26132     -1217023.1      0             -1202061.1      1286.471     
     35100   692.87768     -1216746.4      0             -1202109.3      567.2907     
     35150   700.94339     -1216924.9      0             -1202117.5      708.35663    
     35200   700.64017     -1216935.4      0             -1202134.4      835.52447    
     35250   694.16031     -1216791.1      0             -1202126.9      1400.3783    
     35300   692.12331     -1216737.5      0             -1202116.4      1679.595     
     35350   706.3507      -1216992.7      0             -1202071.1      838.12193    
     35400   700.87392     -1216812.2      0             -1202006.3      1202.1217    
     35450   700.58951     -1216719.2      0             -1201919.2      1145.447     
     35500   710.27553     -1216860.3      0             -1201855.8      1191.1515    
     35550   702.74272     -1216658.7      0             -1201813.2      1235.1648    
     35600   703.20053     -1216715.1      0             -1201860        865.27477    
     35650   692.66117     -1216637.2      0             -1202004.7      626.54495    
     35700   683.95012     -1216623.5      0             -1202175        267.97938    
     35750   693.9599      -1216944.5      0             -1202284.6      1110.3954    
     35800   695.49385     -1217027.3      0             -1202335        666.51499    
     35850   697.15459     -1217071.4      0             -1202344        799.91696    
     35900   691.43349     -1216907.6      0             -1202301.1      168.12148    
     35950   691.5981      -1216789.3      0             -1202179.3     -51.301067    
     36000   697.93271     -1216646.9      0             -1201903.1     -18.406648    
     36050   707.17617     -1216701.7      0             -1201762.6      184.59239    
     36100   703.61593     -1216631        0             -1201767.1     -141.71686    
     36150   712.42036     -1216875.7      0             -1201825.9      432.48857    
     36200   700.23907     -1216748.1      0             -1201955.5      606.90127    
     36250   695.43226     -1216794.6      0             -1202103.6      429.13576    
     36300   696.77798     -1216925.7      0             -1202206.3      980.86305    
     36350   706.6127      -1217161.5      0             -1202234.3      767.6717     
     36400   703.54029     -1217125.2      0             -1202263        1344.0861    
     36450   693.08038     -1216912.1      0             -1202270.8      1018.5519    
     36500   698.18948     -1217001.2      0             -1202252        1580.6139    
     36550   710.89624     -1217141.2      0             -1202123.6      1377.387     
     36600   715.38005     -1217071.2      0             -1201958.8      1015.0623    
     36650   720.98626     -1217096.3      0             -1201865.5      556.96939    
     36700   712.20001     -1216909.3      0             -1201864.1      1291.7777    
     36750   697.15499     -1216663.2      0             -1201935.8      1424.6393    
     36800   701.08591     -1216921.5      0             -1202111.1      1190.8538    
     36850   686.84038     -1216802.5      0             -1202293        964.01606    
     36900   700.48218     -1217167.6      0             -1202369.9      659.89959    
     36950   688.73488     -1216917.7      0             -1202368.1      166.69909    
     37000   698.36806     -1217067.4      0             -1202314.3      697.51831    
     37050   691.50164     -1216841.8      0             -1202233.8      259.75039    
     37100   705.24435     -1217049.3      0             -1202151        781.18565    
     37150   702.54608     -1216936.8      0             -1202095.5      558.65322    
     37200   699.39807     -1216865.9      0             -1202091.1      270.17053    
     37250   705.06871     -1217004.3      0             -1202109.7      296.45404    
     37300   700.80715     -1217067.7      0             -1202263.2      460.16883    
     37350   700.85367     -1217357.7      0             -1202552.1      486.57658    
     37400   699.04769     -1217441        0             -1202673.7      396.83525    
     37450   696.34925     -1217402.2      0             -1202691.8      879.04996    
     37500   697.92137     -1217410.4      0             -1202666.8      684.59549    
     37550   700.19904     -1217354.2      0             -1202562.5      942.82862    
     37600   699.70693     -1217208.3      0             -1202427        669.56128    
     37650   705.43074     -1217207.4      0             -1202305.1      647.53767    
     37700   705.52929     -1217136.5      0             -1202232.2      680.38787    
     37750   703.7026      -1217084        0             -1202218.2      195.81502    
     37800   703.99988     -1217136        0             -1202264        612.91463    
     37850   703.74967     -1217212.1      0             -1202345.3      962.18854    
     37900   700.25443     -1217220.4      0             -1202427.5      553.6673     
     37950   693.61356     -1217160.1      0             -1202507.6      1017.2311    
     38000   699.78857     -1217368.8      0             -1202585.8      459.49931    
     38050   703.20403     -1217588.5      0             -1202733.4      1034.8796    
     38100   686.18799     -1217553        0             -1203057.2      853.43286    
     38150   691.6536      -1217728.2      0             -1203117        923.20842    
     38200   688.5908      -1217583        0             -1203036.5      436.95251    
     38250   682.57728     -1217271.1      0             -1202851.6      649.99699    
     38300   689.4581      -1217244.9      0             -1202680.1      411.60796    
     38350   708.76351     -1217503        0             -1202530.4      416.57608    
     38400   707.88561     -1217377.3      0             -1202423.2      191.59483    
     38450   697.69844     -1217123.3      0             -1202384.4     -410.85685    
     38500   700.38803     -1217150.6      0             -1202354.9     -77.032591    
     38550   697.80053     -1217091.2      0             -1202350.1      295.20206    
     38600   711.43178     -1217388.4      0             -1202359.4      233.87993    
     38650   703.38147     -1217308.7      0             -1202449.8      402.9109     
     38700   700.25641     -1217387.1      0             -1202594.2      66.106256    
     38750   695.15254     -1217406.5      0             -1202721.4      148.91345    
     38800   696.37956     -1217510.3      0             -1202799.3      10.710085    
     38850   693.24566     -1217449        0             -1202804.2      479.70285    
     38900   705.88772     -1217598        0             -1202686.1      734.54278    
     38950   699.20645     -1217224.5      0             -1202453.8      300.18387    
     39000   697.58197     -1217042.3      0             -1202305.9     -100.97792    
     39050   702.05507     -1217104.3      0             -1202273.4     -435.84647    
     39100   699.84288     -1217077.8      0             -1202293.6     -42.5673      
     39150   707.9576      -1217289.2      0             -1202333.6      305.56163    
     39200   696.67069     -1217132        0             -1202414.8      340.84601    
     39250   700.84021     -1217300        0             -1202494.8      471.11538    
     39300   704.8572      -1217467.7      0             -1202577.6      487.69592    
     39350   696.99667     -1217385.6      0             -1202661.5      533.70029    
     39400   695.46298     -1217459.4      0             -1202767.8      819.4444     
     39450   696.01202     -1217552        0             -1202848.8      1459.428     
     39500   689.47042     -1217469.7      0             -1202904.7      817.98232    
     39550   690.22934     -1217408.8      0             -1202827.7      416.99713    
     39600   703.88903     -1217498.3      0             -1202628.7      597.46655    
     39650   700.94391     -1217267        0             -1202459.6      450.176      
     39700   698.37104     -1217112.1      0             -1202359        1120.0026    
     39750   706.48845     -1217223        0             -1202298.4      386.55627    
     39800   696.12067     -1216992.1      0             -1202286.6      164.93777    
     39850   699.65553     -1217070.8      0             -1202290.6      601.32981    
     39900   702.55278     -1217166.4      0             -1202325        518.82384    
     39950   701.22127     -1217249.7      0             -1202436.4      324.55365    
     40000   704.42315     -1217515.7      0             -1202634.7     -67.48019     
     40050   698.77692     -1217537.1      0             -1202775.4     -152.79809    
     40100   693.80025     -1217454.6      0             -1202798.1     -392.09688    
     40150   688.68796     -1217264        0             -1202715.5     -253.0541     
     40200   691.76161     -1217220        0             -1202606.6      257.82876    
     40250   705.12829     -1217389        0             -1202493.2      155.5601     
     40300   700.92753     -1217279        0             -1202471.9      109.34936    
     40350   693.228       -1217088.2      0             -1202443.8      609.6298     
     40400   699.67926     -1217183.8      0             -1202403.1      928.26741    
     40450   711.25029     -1217364.7      0             -1202339.5      505.64908    
     40500   701.74004     -1217142.7      0             -1202318.4      144.05038    
     40550   697.97889     -1217061.2      0             -1202316.4      361.4853     
     40600   709.47487     -1217334        0             -1202346.3      273.04928    
     40650   694.80312     -1217122.3      0             -1202444.6      101.36941    
     40700   694.44946     -1217246.8      0             -1202576.6     -151.1304     
     40750   683.82172     -1217107.4      0             -1202661.7     -137.71564    
     40800   695.21273     -1217349.1      0             -1202662.7      467.8942     
     40850   691.16923     -1217182.2      0             -1202581.3      240.01624    
     40900   705.41004     -1217328.9      0             -1202427.1      518.19848    
     40950   705.94534     -1217197.2      0             -1202284.1      620.958      
     41000   711.85494     -1217245.4      0             -1202207.5      566.85933    
     41050   702.02258     -1217036.1      0             -1202205.9      521.66479    
     41100   708.5626      -1217218.7      0             -1202250.3      713.19164    
     41150   706.60123     -1217267.1      0             -1202340.1      1081.4467    
[...]
     42300   701.7203      -1217282        0             -1202458.2      1705.7352    
     42350   697.90265     -1217215.1      0             -1202471.9      2144.3976    
     42400   694.63231     -1217166.7      0             -1202492.6      1605.5497    
     42450   704.56498     -1217354.9      0             -1202471        1164.175     
     42500   687.35993     -1217004.8      0             -1202484.4      1747.3816    
     42550   699.38002     -1217268.2      0             -1202493.8      1338.3424    
     42600   700.20236     -1217308.5      0             -1202516.8      1528.2574    
     42650   702.47689     -1217405.9      0             -1202566.1      1690.3561    
     42700   689.30241     -1217253.6      0             -1202692.1      995.49892    
     42750   694.28364     -1217485.4      0             -1202818.7      1219.9469    
     42800   680.33903     -1217347.2      0             -1202975        1175.1418    
     42850   694.84744     -1217738.1      0             -1203059.4      1293.9151    
     42900   677.42581     -1217366.6      0             -1203055.9      1105.4377    
     42950   693.88683     -1217525.2      0             -1202866.8      842.76308    
     43000   698.80076     -1217417.6      0             -1202655.4      441.69166    
     43050   695.15049     -1217235.6      0             -1202550.6      513.50383    
     43100   698.66779     -1217239.7      0             -1202480.4      668.97765    
     43150   712.47182     -1217482.1      0             -1202431.1      216.85518    
     43200   700.15222     -1217238.7      0             -1202448        695.79045    
     43250   705.11896     -1217382.3      0             -1202486.7      473.80466    
     43300   701.15515     -1217403        0             -1202591.1     -64.234196    
     43350   703.6699      -1217580.2      0             -1202715.2     -121.15696    
     43400   694.02443     -1217511.9      0             -1202850.6      27.304232    
     43450   695.45356     -1217620.6      0             -1202929.1     -86.595735    
     43500   697.01084     -1217638        0             -1202913.6     -125.10038    
     43550   694.26289     -1217429.6      0             -1202763.3     -112.74046    
     43600   706.22687     -1217404.2      0             -1202485.2      201.72639    
     43650   705.62496     -1217275.8      0             -1202369.5     -301.73497    
     43700   705.30202     -1217254.6      0             -1202355.1      140.80678    
     43750   712.37138     -1217458        0             -1202409.2     -230.15783    
     43800   703.62421     -1217386        0             -1202522       -59.165777    
     43850   698.74132     -1217397.9      0             -1202636.9      145.608      
     43900   702.13122     -1217579.8      0             -1202747.3      300.40107    
     43950   699.14111     -1217571.5      0             -1202802.1      905.3569     
     44000   702.46242     -1217664.4      0             -1202824.9      484.25099    
     44050   694.3382      -1217521.1      0             -1202853.2      606.30124    
     44100   697.03405     -1217557.7      0             -1202832.8      777.81019    
     44150   697.69463     -1217414        0             -1202675.2      597.73912    
     44200   711.17632     -1217526.8      0             -1202503.2      673.50472    
     44250   702.46125     -1217253.7      0             -1202414.2      680.38913    
     44300   708.51207     -1217369.1      0             -1202401.8      644.40119    
     44350   701.82496     -1217250.8      0             -1202424.8      772.94145    
     44400   696.52299     -1217208.7      0             -1202494.6      328.21941    
     44450   700.22957     -1217443.6      0             -1202651.3      595.00438    
     44500   693.09616     -1217472.4      0             -1202830.7      287.61905    
     44550   693.66855     -1217561.2      0             -1202907.4      524.26469    
     44600   690.98772     -1217507.1      0             -1202910        629.26893    
     44650   696.66269     -1217583.2      0             -1202866.2      400.10643    
     44700   693.85685     -1217466.4      0             -1202808.7      987.0402     
     44750   697.37354     -1217465.5      0             -1202733.5      482.72187    
     44800   699.03133     -1217465.7      0             -1202698.7      1022.4292    
     44850   701.64992     -1217480.3      0             -1202657.9      505.91802    
     44900   704.13923     -1217490.6      0             -1202615.6      1077.2327    
     44950   699.06999     -1217370.9      0             -1202603        271.34608    
     45000   701.12357     -1217391.4      0             -1202580.2      322.03625    
     45050   711.17611     -1217588.4      0             -1202564.8      203.16966    
     45100   694.63942     -1217244.2      0             -1202570        797.47569    
     45150   706.88649     -1217515.9      0             -1202582.9      368.82457    
     45200   698.15573     -1217396.5      0             -1202648        185.74699    
     45250   692.39914     -1217335.6      0             -1202708.7      11.652833    
     45300   694.4271      -1217392.5      0             -1202722.7      74.451518    
     45350   696.28957     -1217450.7      0             -1202741.6      266.73837    
     45400   700.55848     -1217558.4      0             -1202759.1      240.74655    
     45450   693.96817     -1217406.2      0             -1202746.2     -172.4376     
     45500   698.73683     -1217466.5      0             -1202705.7      62.485016    
     45550   693.75002     -1217285.4      0             -1202630        438.03215    
     45600   706.89659     -1217463.7      0             -1202530.5      328.35279    
     45650   712.87712     -1217488        0             -1202428.5      348.54472    
     45700   706.82491     -1217307.4      0             -1202375.8      340.01084    
     45750   708.75986     -1217340.9      0             -1202368.3      211.08053    
     45800   704.6078      -1217333.1      0             -1202448.2      496.22976    
     45850   686.72283     -1217165.5      0             -1202658.5     -21.658633    
     45900   692.73635     -1217463.2      0             -1202829.1      634.60981    
     45950   688.69101     -1217442.9      0             -1202894.3      89.416124    
     46000   693.96082     -1217549.9      0             -1202890        37.028904    
     46050   700.80997     -1217606.7      0             -1202802.1      733.99828    
     46100   703.08151     -1217539.9      0             -1202687.3      201.16653    
     46150   696.98657     -1217318        0             -1202594.2      96.149426    
     46200   707.54305     -1217480.1      0             -1202533.3     -99.641796    
     46250   707.92368     -1217490.1      0             -1202535.2      189.82741    
     46300   696.9665      -1217280        0             -1202556.6      24.796579    
     46350   698.69133     -1217358.5      0             -1202598.6      193.39096    
     46400   711.27468     -1217655.8      0             -1202630.2      422.00813    
     46450   694.88399     -1217346        0             -1202666.6      518.27287    
     46500   708.64077     -1217662.9      0             -1202692.9     -135.02939    
     46550   694.78319     -1217414.4      0             -1202737.1      525.31066    
     46600   695.7805      -1217467.4      0             -1202769        920.50787    
     46650   692.40102     -1217431.2      0             -1202804.2      995.49074    
     46700   694.33205     -1217487.6      0             -1202819.8      720.67581    
     46750   704.24251     -1217667        0             -1202789.9      652.23828    
     46800   698.1747      -1217463.8      0             -1202714.9      748.17979    
     46850   708.82906     -1217555.1      0             -1202581.1      789.35577    
     46900   702.66949     -1217317        0             -1202473.1      940.44523    
     46950   708.66871     -1217352.9      0             -1202382.3      262.47308    
     47000   711.99894     -1217439.5      0             -1202398.6      262.27516    
     47050   700.46438     -1217305.1      0             -1202507.8      531.8136     
     47100   700.48189     -1217526        0             -1202728.3      395.59571    
     47150   692.72143     -1217499        0             -1202865.2      1115.7969    
     47200   701.2745      -1217720.1      0             -1202905.6      917.13197    
     47250   696.94237     -1217640.1      0             -1202917.2      676.16017    
     47300   700.10278     -1217685.6      0             -1202895.9      862.37514    
     47350   704.8851      -1217724        0             -1202833.3      881.25622    
     47400   690.47381     -1217333.8      0             -1202747.6      900.73603    
     47450   707.96904     -1217568.2      0             -1202612.3      882.16846    
     47500   708.23855     -1217451.2      0             -1202489.7      804.69765    
     47550   704.71465     -1217303.3      0             -1202416.2      1025.2475    
     47600   709.16125     -1217392.5      0             -1202411.5      766.71568    
     47650   710.82343     -1217563.7      0             -1202547.5      599.53735    
     47700   695.6447      -1217504.5      0             -1202809        727.42838    
     47750   693.88118     -1217600.8      0             -1202942.6      759.77361    
     47800   689.4167      -1217566        0             -1203002.1      1300.5877    
     47850   688.90107     -1217557.8      0             -1203004.8      1737.559     
     47900   701.02466     -1217752.5      0             -1202943.3      1625.8425    
     47950   688.26492     -1217341.2      0             -1202801.6      1224.803     
     48000   706.41985     -1217556.8      0             -1202633.7      1344.1173    
     48050   705.87995     -1217465.9      0             -1202554.2      1514.9037    
     48100   711.55264     -1217590.6      0             -1202559        1551.449     
     48150   696.62156     -1217335.3      0             -1202619.2      1602.9915    
     48200   699.20016     -1217467.4      0             -1202696.8      1391.1476    
     48250   702.44627     -1217601.4      0             -1202762.2      1789.9215    
     48300   697.94365     -1217582.9      0             -1202838.8      1225.7503    
     48350   692.59028     -1217500.3      0             -1202869.3      1269.8071    
     48400   703.6025      -1217742        0             -1202878.4      944.23067    
     48450   706.2532      -1217817.3      0             -1202897.7      937.22703    
     48500   698.90585     -1217664        0             -1202899.6      783.50485    
     48550   693.75127     -1217568.2      0             -1202912.7      345.03915    
     48600   695.34644     -1217614        0             -1202924.8      122.82243    
     48650   696.19553     -1217622.6      0             -1202915.4      324.80241    
     48700   699.70397     -1217685.3      0             -1202904.1     -17.496492    
     48750   697.55736     -1217558.8      0             -1202822.9      15.783937    
     48800   711.28374     -1217704.3      0             -1202678.4      118.71596    
     48850   710.20775     -1217535.2      0             -1202532.1      99.563964    
     48900   717.04731     -1217633.1      0             -1202485.5      570.61429    
     48950   704.67952     -1217413.5      0             -1202527.1      559.80849    
     49000   705.32276     -1217597.8      0             -1202697.9      697.83334    
     49050   699.87765     -1217683.2      0             -1202898.3      821.1394     
     49100   693.43413     -1217651.8      0             -1203003        179.97959    
     49150   694.43861     -1217676.6      0             -1203006.6      945.04219    
     49200   702.86322     -1217835.4      0             -1202987.5      1397.2697    
     49250   703.32938     -1217790.3      0             -1202932.5      737.40749    
     49300   698.94692     -1217666.2      0             -1202901        614.44708    
     49350   698.2795      -1217603.7      0             -1202852.6      500.1309     
     49400   714.28529     -1217922        0             -1202832.7      571.80318    
     49450   696.20643     -1217550.1      0             -1202842.8      361.2554     
     49500   699.90823     -1217634.9      0             -1202849.3      426.0425     
     49550   711.99509     -1217923.9      0             -1202883        371.99294    
     49600   702.78308     -1217809.5      0             -1202963.2      812.47569    
     49650   696.75662     -1217798.7      0             -1203079.7      896.80496    
     49700   698.89672     -1217958.4      0             -1203194.2      923.85633    
     49750   691.85067     -1217868.1      0             -1203252.7      676.00658    
     49800   694.07012     -1217920.6      0             -1203258.4      830.67165    
     49850   692.34468     -1217826.4      0             -1203200.6      1186.4289    
     49900   698.16739     -1217785.7      0             -1203036.9      1475.8226    
     49950   704.03966     -1217686.8      0             -1202814        1368.8302    
     50000   703.5898      -1217612.1      0             -1202748.7      1488.0288    
     50050   708.12561     -1217723.9      0             -1202764.8      1772.7548    
     50100   706.68648     -1217786.6      0             -1202857.8      1984.0831    
     50150   695.75825     -1217685.9      0             -1202988        492.74198    
     50200   699.65539     -1217840.7      0             -1203060.4      714.83648    
     50250   702.96729     -1217967.3      0             -1203117.2      746.45989    
     50300   694.76685     -1217817.7      0             -1203140.7      873.47211    
     50350   704.40238     -1218012.8      0             -1203132.3      549.8115     
     50400   698.10528     -1217842.8      0             -1203095.4      509.22945    
     50450   713.35615     -1218107.7      0             -1203038        160.13421    
     50500   703.79345     -1217876.5      0             -1203008.9      645.06781    
     50550   702.15925     -1217748.6      0             -1202915.5      657.65297    
     50600   709.6619      -1217639.5      0             -1202647.9      152.5737     
     50650   704.9958      -1217337.8      0             -1202444.7      498.27093    
     50700   717.17321     -1217589.4      0             -1202439.2     -115.91576    
     50750   706.66912     -1217477        0             -1202548.6      244.86747    
     50800   714.01866     -1217833.9      0             -1202750.2      609.16735    
     50850   704.72698     -1217792.2      0             -1202904.8      476.66231    
     50900   701.0348      -1217816.1      0             -1203006.7      631.28811    
     50950   699.24771     -1217838.7      0             -1203067.1      205.60866    
     51000   694.54257     -1217792.5      0             -1203120.3      296.42186    
     51050   697.51987     -1217856.5      0             -1203121.3      897.34286    
     51100   700.77341     -1217935        0             -1203131.2      705.75753    
     51150   701.47126     -1217941.1      0             -1203122.5      689.11582    
     51200   690.91591     -1217676        0             -1203080.4      498.39338    
     51250   696.06927     -1217658.6      0             -1202954.1      664.26037    
     51300   712.74076     -1217869.6      0             -1202812.9      189.62437    
     51350   706.76844     -1217640.1      0             -1202709.6      339.30469    
     51400   710.67268     -1217748.6      0             -1202735.6      71.91812     
     51450   696.64406     -1217554.7      0             -1202838.1      375.41358    
     51500   704.79474     -1217897.9      0             -1203009.1     -236.12517    
     51550   700.77238     -1217951.2      0             -1203147.4      359.23257    
     51600   695.7671      -1217919.2      0             -1203221.1      454.04019    
     51650   696.60813     -1217955.5      0             -1203239.7      134.22321    
     51700   696.50234     -1217953.1      0             -1203239.4     -254.11556    
     51750   694.6107      -1217883.9      0             -1203210.2      356.07151    
     51800   695.34334     -1217847.4      0             -1203158.3      198.18945    
     51850   694.80501     -1217760.5      0             -1203082.7      472.33204    
     51900   699.78141     -1217761.7      0             -1202978.8      420.69584    
     51950   705.3088      -1217782.1      0             -1202882.5      645.12791    
     52000   705.40359     -1217719.6      0             -1202818        354.75925    
     52050   704.93628     -1217673.2      0             -1202781.4      380.11051    
     52100   709.58243     -1217799.1      0             -1202809.2      255.02832    
     52150   701.94293     -1217783.6      0             -1202955.1      72.133638    
     52200   706.2372      -1218041.3      0             -1203122        574.74472    
     52250   704.89972     -1218158.6      0             -1203267.6      670.14311    
     52300   693.51615     -1218015.7      0             -1203365.1      240.85809    
     52350   696.3787      -1218083.9      0             -1203372.9      474.35246    
     52400   693.37208     -1218008.5      0             -1203361.1      204.57008    
     52450   692.45865     -1217906.3      0             -1203278.1      608.17784    
     52500   707.82509     -1218109.4      0             -1203156.6      358.24866    
     52550   704.45764     -1217859.3      0             -1202977.7      391.93001    
     52600   704.344       -1217730.7      0             -1202851.5      493.78964    
     52650   705.03192     -1217736.8      0             -1202843        631.58465    
     52700   713.77987     -1217973.4      0             -1202894.8      594.11146    
     52750   703.13239     -1217811.9      0             -1202958.3      552.87168    
     52800   705.439       -1217939.8      0             -1203037.4      781.12128    
     52850   696.8688      -1217824.9      0             -1203103.5      392.76046    
     52900   702.83498     -1217979.4      0             -1203132        389.88452    
     52950   701.08248     -1217962.3      0             -1203151.9      641.66009    
     53000   698.87528     -1217945.1      0             -1203181.4     -67.408264    
     53013   695.85856     -1217880.6      0             -1203180.6      393.72633    
Loop time of 31723.7 on 1 procs for 50000 steps with 7088 atoms

Performance: 0.068 ns/day, 352.486 hours/ns, 1.576 timesteps/s, 11.171 katom-step/s
92.0% CPU use with 1 MPI tasks x 1 OpenMP threads

MPI task timing breakdown:
Section |  min time  |  avg time  |  max time  |%varavg| %total
---------------------------------------------------------------
Pair    | 31552      | 31552      | 31552      |   0.0 | 99.46
Neigh   | 12.559     | 12.559     | 12.559     |   0.0 |  0.04
Comm    | 1.1939     | 1.1939     | 1.1939     |   0.0 |  0.00
Output  | 1.7115     | 1.7115     | 1.7115     |   0.0 |  0.01
Modify  | 155.21     | 155.21     | 155.21     |   0.0 |  0.49
Other   |            | 1.142      |            |       |  0.00

Nlocal:           7088 ave        7088 max        7088 min
Histogram: 1 0 0 0 0 0 0 0 0 0
Nghost:           4046 ave        4046 max        4046 min
Histogram: 1 0 0 0 0 0 0 0 0 0
Neighs:    1.28626e+06 ave 1.28626e+06 max 1.28626e+06 min
Histogram: 1 0 0 0 0 0 0 0 0 0

Total # of neighbors = 1286258
Ave neighs/atom = 181.46981
Neighbor list builds = 513
Dangerous builds = 0
Total wall time: 9:19:11
