ITEM: TIMESTEP
267
ITEM: NUMBER OF ATOMS
256
ITEM: BOX BOUNDS xy xz yz pp pp pp
-6.3596408216554795e-02 3.0390323217558354e+01 1.0148727701402480e+01
-5.1726092997816220e-02 1.7526385918012984e+01 0.0000000000000000e+00
0.0000000000000000e+00 4.4198048819842896e+01 0.0000000000000000e+00
ITEM: ATOMS id type x y z q
1 1 1.20532 0.680697 15.7438 5.21568e-08
4 1 2.47423 1.41311 18.1572 -3.12393e-08
5 1 2.47391 2.87796 15.7438 -4.10494e-08
8 1 3.74282 3.61038 18.1572 -5.413e-08
9 1 3.7425 5.07522 15.7438 -1.42657e-07
12 1 5.01141 5.80764 18.1572 -1.52214e-07
13 1 5.01109 7.27249 15.7438 7.95679e-08
14 1 5.01077 8.73733 15.869 5.02281e-08
17 1 3.74346 0.680697 15.7438 -7.10792e-08
18 1 3.74314 2.14554 15.869 -1.10276e-07
19 1 3.74314 2.14554 18.032 -4.77809e-08
20 1 5.01238 1.41311 18.1572 6.52545e-08
21 1 5.01206 2.87796 15.7438 -5.02151e-08
22 1 5.01174 4.3428 15.869 -1.52926e-07
23 1 5.01173 4.3428 18.032 -1.09393e-07
2 1 1.205 2.14554 15.869 2.78718e-08
6 1 2.47359 4.3428 15.869 -2.23673e-08
10 1 3.74218 6.54006 15.869 -2.98762e-08
95 1 2.47455 -0.0517245 18.032 -1.07418e-07
111 1 5.0127 -0.0517245 18.032 2.84021e-08
16 1 6.28 8.00491 18.1572 -5.4858e-08
24 1 6.28097 3.61038 18.1572 4.36508e-08
25 1 6.28065 5.07522 15.7438 -3.78893e-08
26 1 6.28033 6.54006 15.869 1.00851e-07
27 1 6.28032 6.54007 18.032 -3.41064e-08
28 1 7.54956 5.80764 18.1572 1.99358e-08
29 1 7.54924 7.27249 15.7438 1.2531e-07
30 1 7.54892 8.73733 15.869 -1.16638e-07
32 1 8.81815 8.00491 18.1572 -7.04327e-08
33 1 6.28161 0.680697 15.7438 1.84413e-07
34 1 6.28129 2.14554 15.869 1.39868e-07
35 1 6.28129 2.14554 18.032 1.54934e-07
36 1 7.55053 1.41311 18.1572 1.12806e-07
37 1 7.5502 2.87796 15.7438 4.29419e-08
38 1 7.54988 4.3428 15.869 -1.85104e-08
39 1 7.54988 4.3428 18.032 1.12132e-08
40 1 8.81912 3.61038 18.1572 -5.01283e-08
41 1 8.8188 5.07522 15.7438 9.42573e-09
42 1 8.81848 6.54006 15.869 2.10014e-07
43 1 8.81847 6.54007 18.032 8.54092e-08
44 1 10.0877 5.80764 18.1572 6.59804e-08
45 1 10.0874 7.27249 15.7438 2.1138e-07
46 1 10.0871 8.73733 15.869 2.39603e-08
48 1 11.3563 8.00491 18.1572 3.3838e-08
49 1 8.81976 0.680697 15.7438 6.41443e-08
50 1 8.81944 2.14554 15.869 -2.70532e-08
51 1 8.81944 2.14554 18.032 -4.97643e-08
52 1 10.0887 1.41311 18.1572 -5.05583e-08
53 1 10.0884 2.87796 15.7438 -1.10592e-07
54 1 10.088 4.3428 15.869 -7.01805e-08
55 1 10.088 4.3428 18.032 1.33995e-08
56 1 11.3573 3.61038 18.1572 3.4533e-08
57 1 11.3569 5.07522 15.7438 -7.67836e-09
58 1 11.3566 6.54006 15.869 1.21068e-07
59 1 11.3566 6.54007 18.032 -2.79559e-09
129 1 11.3579 0.680697 15.7438 8.56773e-08
130 1 11.3576 2.14554 15.869 -1.29077e-08
131 1 11.3576 2.14554 18.032 2.93469e-08
127 1 7.55085 -0.0517245 18.032 4.67564e-08
207 1 10.089 -0.0517245 18.032 -8.79682e-09
60 1 12.6259 5.80764 18.1572 -1.72923e-07
61 1 12.6255 7.27249 15.7438 2.84687e-09
62 1 12.6252 8.73733 15.869 8.72544e-09
64 1 13.8945 8.00491 18.1572 -9.92974e-08
132 1 12.6268 1.41311 18.1572 9.75937e-08
133 1 12.6265 2.87796 15.7438 -7.54323e-09
134 1 12.6262 4.3428 15.869 -6.31456e-08
135 1 12.6262 4.3428 18.032 -2.70574e-08
136 1 13.8954 3.61038 18.1572 7.46999e-08
137 1 13.8951 5.07522 15.7438 -1.09137e-07
138 1 13.8948 6.54006 15.869 -7.06291e-08
139 1 13.8948 6.54007 18.032 -1.8731e-07
140 1 15.164 5.80764 18.1572 -2.3362e-08
141 1 15.1637 7.27249 15.7438 1.13113e-07
142 1 15.1634 8.73733 15.869 9.48471e-09
144 1 16.4326 8.00491 18.1572 7.40032e-08
145 1 13.8961 0.680697 15.7438 -3.48192e-08
146 1 13.8957 2.14554 15.869 -6.44547e-09
147 1 13.8957 2.14554 18.032 1.04696e-07
148 1 15.165 1.41311 18.1572 6.43651e-08
149 1 15.1647 2.87796 15.7438 -1.39659e-08
150 1 15.1643 4.3428 15.869 -4.90869e-08
151 1 15.1643 4.3428 18.032 4.30928e-08
152 1 16.4336 3.61038 18.1572 4.27636e-08
153 1 16.4332 5.07522 15.7438 -1.62143e-09
154 1 16.4329 6.54006 15.869 2.04715e-07
155 1 16.4329 6.54007 18.032 1.184e-07
156 1 17.7022 5.80764 18.1572 1.9061e-08
157 1 17.7018 7.27249 15.7438 1.6159e-07
158 1 17.7015 8.73733 15.869 -1.27739e-08
161 1 16.4342 0.680697 15.7438 4.15168e-08
162 1 16.4339 2.14554 15.869 1.5979e-10
163 1 16.4339 2.14554 18.032 7.28683e-08
164 1 17.7031 1.41311 18.1572 6.20123e-08
165 1 17.7028 2.87796 15.7438 -9.99533e-08
166 1 17.7025 4.3428 15.869 -1.58207e-07
167 1 17.7025 4.3428 18.032 -7.08444e-08
223 1 12.6271 -0.0517245 18.032 4.50763e-08
239 1 15.1653 -0.0517245 18.032 -5.36529e-08
255 1 17.7034 -0.0517245 18.032 7.07353e-08
3 1 21.5102 2.14554 18.032 9.34689e-08
7 1 22.7788 4.3428 18.032 3.70617e-08
11 1 24.0474 6.54007 18.032 -1.23214e-07
160 1 18.9707 8.00491 18.1572 -7.13104e-08
168 1 18.9717 3.61038 18.1572 -1.00918e-07
169 1 18.9714 5.07522 15.7438 -1.3346e-07
170 1 18.9711 6.54006 15.869 7.03225e-08
171 1 18.9711 6.54007 18.032 3.35429e-09
172 1 20.2403 5.80764 18.1572 1.51867e-08
173 1 20.24 7.27249 15.7438 6.84833e-08
174 1 20.2397 8.73733 15.869 -1.15744e-07
176 1 21.5089 8.00491 18.1572 -1.69685e-08
177 1 18.9724 0.680697 15.7438 1.41727e-07
178 1 18.972 2.14554 15.869 -7.93878e-09
179 1 18.972 2.14554 18.032 -2.57836e-08
180 1 20.2413 1.41311 18.1572 6.11118e-08
181 1 20.2409 2.87796 15.7438 -3.29997e-08
182 1 20.2406 4.3428 15.869 -5.10609e-08
183 1 20.2406 4.3428 18.032 3.73818e-08
184 1 21.5099 3.61038 18.1572 1.46206e-07
185 1 21.5095 5.07522 15.7438 6.99087e-08
186 1 21.5092 6.54006 15.869 1.40172e-07
187 1 21.5092 6.54007 18.032 2.11729e-08
188 1 22.7785 5.80764 18.1572 -6.12652e-08
189 1 22.7781 7.27249 15.7438 8.04133e-08
190 1 22.7778 8.73733 15.869 2.78177e-08
192 1 24.047 8.00491 18.1572 1.23461e-08
79 1 20.2416 -0.0517245 18.032 5.53144e-08
31 1 7.54892 8.73733 18.032 -1.62325e-07
47 1 10.0871 8.73733 18.032 -2.65268e-08
65 1 6.27968 9.46975 15.7438 -5.44527e-08
68 1 7.5486 10.2022 18.1572 -1.1183e-07
69 1 7.54827 11.667 15.7438 -2.07491e-08
70 1 7.54795 13.1319 15.869 3.21887e-08
72 1 8.81719 12.3994 18.1572 3.87515e-08
73 1 8.81686 13.8643 15.7438 -1.40687e-07
74 1 8.81654 15.3291 15.869 -1.27334e-07
76 1 10.0858 14.5967 18.1572 -1.71228e-07
77 1 10.0855 16.0615 15.7438 3.95221e-09
78 1 10.0851 17.5264 15.869 1.22294e-07
80 1 11.3544 16.794 18.1572 -5.7082e-08
81 1 8.81783 9.46975 15.7438 -1.7771e-07
82 1 8.81751 10.9346 15.869 -1.49373e-07
83 1 8.81751 10.9346 18.032 -8.35278e-08
84 1 10.0867 10.2022 18.1572 -1.5361e-08
85 1 10.0864 11.667 15.7438 -2.99428e-08
86 1 10.0861 13.1319 15.869 -9.84046e-08
87 1 10.0861 13.1319 18.032 -1.28572e-08
88 1 11.3553 12.3994 18.1572 1.36516e-07
89 1 11.355 13.8643 15.7438 -3.59385e-08
90 1 11.3547 15.3291 15.869 3.3704e-09
91 1 11.3547 15.3291 18.032 -9.61392e-08
97 1 11.356 9.46975 15.7438 7.77739e-08
98 1 11.3557 10.9346 15.869 1.00761e-07
99 1 11.3557 10.9346 18.032 1.19177e-07
66 1 6.27936 10.9346 15.869 -1.11976e-08
63 1 12.6252 8.73733 18.032 -8.15846e-09
143 1 15.1634 8.73733 18.032 -6.36773e-08
159 1 17.7015 8.73733 18.032 -9.82044e-09
92 1 12.6239 14.5967 18.1572 9.22616e-10
93 1 12.6236 16.0615 15.7438 4.96955e-08
94 1 12.6233 17.5264 15.869 -4.45687e-08
96 1 13.8925 16.794 18.1572 -7.26372e-08
100 1 12.6249 10.2022 18.1572 3.22058e-08
101 1 12.6246 11.667 15.7438 6.3225e-08
102 1 12.6242 13.1319 15.869 3.60173e-08
103 1 12.6242 13.1319 18.032 1.07755e-07
104 1 13.8935 12.3994 18.1572 4.27668e-08
105 1 13.8932 13.8643 15.7438 1.13999e-08
106 1 13.8928 15.3291 15.869 1.12554e-07
107 1 13.8928 15.3291 18.032 2.33965e-08
108 1 15.1621 14.5967 18.1572 4.69947e-08
109 1 15.1618 16.0615 15.7438 1.35788e-07
110 1 15.1614 17.5264 15.869 9.60508e-08
112 1 16.4307 16.794 18.1572 3.16426e-08
113 1 13.8941 9.46975 15.7438 -4.24639e-08
114 1 13.8938 10.9346 15.869 -6.61279e-08
115 1 13.8938 10.9346 18.032 -8.54869e-08
116 1 15.163 10.2022 18.1572 -1.31121e-07
117 1 15.1627 11.667 15.7438 -9.02719e-08
118 1 15.1624 13.1319 15.869 -1.56191e-08
119 1 15.1624 13.1319 18.032 1.09976e-07
120 1 16.4316 12.3994 18.1572 1.27452e-07
121 1 16.4313 13.8643 15.7438 -5.68284e-09
122 1 16.431 15.3291 15.869 2.36235e-08
123 1 16.431 15.3291 18.032 -6.47933e-08
124 1 17.7002 14.5967 18.1572 -1.91911e-07
125 1 17.6999 16.0615 15.7438 -7.27514e-08
126 1 17.6996 17.5264 15.869 8.08045e-08
193 1 16.4323 9.46975 15.7438 -2.091e-08
194 1 16.432 10.9346 15.869 -5.1956e-08
195 1 16.432 10.9346 18.032 -6.3527e-09
196 1 17.7012 10.2022 18.1572 1.70218e-08
197 1 17.7009 11.667 15.7438 1.278e-08
198 1 17.7005 13.1319 15.869 -8.57983e-09
199 1 17.7005 13.1319 18.032 6.95207e-08
175 1 20.2397 8.73733 18.032 -1.08591e-07
191 1 22.7778 8.73733 18.032 1.58012e-08
128 1 18.9688 16.794 18.1572 -1.01522e-07
200 1 18.9698 12.3994 18.1572 1.676e-07
201 1 18.9695 13.8643 15.7438 -1.07157e-07
202 1 18.9691 15.3291 15.869 -1.68095e-07
203 1 18.9691 15.3291 18.032 -2.49331e-07
204 1 20.2384 14.5967 18.1572 -4.23719e-08
205 1 20.238 16.0615 15.7438 3.74873e-08
206 1 20.2377 17.5264 15.869 8.15293e-08
208 1 21.507 16.794 18.1572 7.17678e-08
209 1 18.9704 9.46975 15.7438 -1.41439e-07
210 1 18.9701 10.9346 15.869 -4.55187e-08
211 1 18.9701 10.9346 18.032 6.89702e-08
212 1 20.2393 10.2022 18.1572 -1.6242e-08
213 1 20.239 11.667 15.7438 6.32779e-09
214 1 20.2387 13.1319 15.869 5.45567e-09
215 1 20.2387 13.1319 18.032 1.39648e-07
216 1 21.5079 12.3994 18.1572 1.3565e-07
217 1 21.5076 13.8643 15.7438 3.47557e-10
218 1 21.5073 15.3291 15.869 1.07239e-07
219 1 21.5073 15.3291 18.032 5.63713e-08
220 1 22.7765 14.5967 18.1572 6.68072e-11
221 1 22.7762 16.0615 15.7438 8.5979e-08
222 1 22.7759 17.5264 15.869 5.92825e-08
224 1 24.0451 16.794 18.1572 -7.35073e-08
225 1 21.5086 9.46975 15.7438 -6.51307e-08
226 1 21.5083 10.9346 15.869 -3.89384e-08
227 1 21.5083 10.9346 18.032 3.7121e-08
228 1 22.7775 10.2022 18.1572 -1.85939e-08
229 1 22.7772 11.667 15.7438 -7.96609e-08
230 1 22.7768 13.1319 15.869 -1.03659e-07
231 1 22.7768 13.1319 18.032 2.57201e-08
232 1 24.0461 12.3994 18.1572 -8.01049e-09
233 1 24.0458 13.8643 15.7438 -1.31467e-07
234 1 24.0454 15.3291 15.869 -2.71203e-08
235 1 24.0454 15.3291 18.032 -5.8638e-08
241 1 24.0467 9.46975 15.7438 3.51007e-08
242 1 24.0464 10.9346 15.869 -4.70196e-08
243 1 24.0464 10.9346 18.032 -6.15106e-08
15 1 25.316 8.73733 18.032 4.13356e-10
71 1 27.8531 13.1319 18.032 1.33634e-07
75 1 29.1217 15.3291 18.032 -1.85223e-07
67 1 26.5845 10.9346 18.032 5.77525e-08
236 1 25.3147 14.5967 18.1572 -3.77672e-09
237 1 25.3143 16.0615 15.7438 -7.08934e-09
238 1 25.314 17.5264 15.869 -4.3645e-08
240 1 26.5833 16.794 18.1572 -1.91438e-08
244 1 25.3156 10.2022 18.1572 -1.94676e-08
245 1 25.3153 11.667 15.7438 -1.26866e-08
246 1 25.315 13.1319 15.869 3.51034e-09
247 1 25.315 13.1319 18.032 1.33971e-07
248 1 26.5842 12.3994 18.1572 2.39122e-07
249 1 26.5839 13.8643 15.7438 7.19131e-08
250 1 26.5836 15.3291 15.869 4.27483e-08
251 1 26.5836 15.3291 18.032 -4.08026e-08
252 1 27.8528 14.5967 18.1572 -8.02421e-08
253 1 27.8525 16.0615 15.7438 4.83381e-09
254 1 27.8522 17.5264 15.869 9.99161e-08
256 1 29.1214 16.794 18.1572 1.01417e-08
