ITEM: TIMESTEP
0
ITEM: NUMBER OF ATOMS
256
ITEM: BOX BOUNDS xy xz yz pp pp pp
0.0000000000000000e+00 3.0266998661908982e+01 1.0088999553969661e+01
0.0000000000000000e+00 1.7474659825015195e+01 0.0000000000000000e+00
0.0000000000000000e+00 4.4198048819842896e+01 0.0000000000000000e+00
ITEM: ATOMS id type x y z q
1 1 1.26112 0.728111 15.6634 2.16632e-14
4 1 2.52225 1.45622 18.2376 2.15106e-14
5 1 2.52225 2.91244 15.6634 2.17465e-14
8 1 3.78337 3.64055 18.2376 2.3162e-14
9 1 3.78337 5.09678 15.6634 2.18298e-14
12 1 5.0445 5.82489 18.2376 2.26069e-14
13 1 5.0445 7.28111 15.6634 2.26208e-14
14 1 5.0445 8.73733 16.1782 -2.24473e-14
15 1 5.0445 8.73733 17.7228 -2.42653e-14
17 1 3.78337 0.728111 15.6634 2.30926e-14
18 1 3.78337 2.18433 16.1782 -2.124e-14
19 1 3.78337 2.18433 17.7228 -2.23363e-14
20 1 5.0445 1.45622 18.2376 2.25375e-14
21 1 5.0445 2.91244 15.6634 2.25098e-14
22 1 5.0445 4.36866 16.1782 -2.1344e-14
23 1 5.0445 4.36866 17.7228 -2.15383e-14
16 1 6.30562 8.00922 18.2376 2.28151e-14
24 1 6.30562 3.64055 18.2376 2.2829e-14
25 1 6.30562 5.09678 15.6634 2.31898e-14
26 1 6.30562 6.553 16.1782 -2.01089e-14
27 1 6.30562 6.553 17.7228 -2.24057e-14
28 1 7.56675 5.82489 18.2376 2.21351e-14
29 1 7.56675 7.28111 15.6634 2.35922e-14
30 1 7.56675 8.73733 16.1782 -2.02824e-14
31 1 7.56675 8.73733 17.7228 -2.05808e-14
32 1 8.82787 8.00922 18.2376 2.20518e-14
33 1 6.30562 0.728111 15.6634 2.22461e-14
34 1 6.30562 2.18433 16.1782 -2.15591e-14
35 1 6.30562 2.18433 17.7228 -2.34951e-14
36 1 7.56675 1.45622 18.2376 2.32731e-14
37 1 7.56675 2.91244 15.6634 2.1802e-14
38 1 7.56675 4.36866 16.1782 -2.36131e-14
39 1 7.56675 4.36866 17.7228 -2.25792e-14
40 1 8.82787 3.64055 18.2376 2.13302e-14
41 1 8.82787 5.09678 15.6634 2.21489e-14
42 1 8.82787 6.553 16.1782 -2.17881e-14
43 1 8.82787 6.553 17.7228 -2.38073e-14
44 1 10.089 5.82489 18.2376 2.24543e-14
45 1 10.089 7.28111 15.6634 2.26208e-14
46 1 10.089 8.73733 16.1782 -2.23987e-14
47 1 10.089 8.73733 17.7228 -2.43972e-14
48 1 11.3501 8.00922 18.2376 2.16355e-14
49 1 8.82787 0.728111 15.6634 2.17326e-14
50 1 8.82787 2.18433 16.1782 -2.46053e-14
51 1 8.82787 2.18433 17.7228 -2.18506e-14
52 1 10.089 1.45622 18.2376 2.30788e-14
53 1 10.089 2.91244 15.6634 2.28983e-14
54 1 10.089 4.36866 16.1782 -2.26347e-14
55 1 10.089 4.36866 17.7228 -2.29816e-14
56 1 11.3501 3.64055 18.2376 2.30788e-14
57 1 11.3501 5.09678 15.6634 2.16771e-14
58 1 11.3501 6.553 16.1782 -2.32037e-14
59 1 11.3501 6.553 17.7228 -2.20032e-14
129 1 11.3501 0.728111 15.6634 2.38282e-14
130 1 11.3501 2.18433 16.1782 -2.24265e-14
131 1 11.3501 2.18433 17.7228 -2.45914e-14
60 1 12.6112 5.82489 18.2376 2.11775e-14
61 1 12.6112 7.28111 15.6634 2.16355e-14
62 1 12.6112 8.73733 16.1782 -2.07959e-14
63 1 12.6112 8.73733 17.7228 -2.34673e-14
64 1 13.8724 8.00922 18.2376 2.22322e-14
132 1 12.6112 1.45622 18.2376 2.14828e-14
133 1 12.6112 2.91244 15.6634 2.2593e-14
134 1 12.6112 4.36866 16.1782 -2.39947e-14
135 1 12.6112 4.36866 17.7228 -2.35922e-14
136 1 13.8724 3.64055 18.2376 2.29955e-14
137 1 13.8724 5.09678 15.6634 2.42723e-14
138 1 13.8724 6.553 16.1782 -2.21489e-14
139 1 13.8724 6.553 17.7228 -2.2593e-14
140 1 15.1335 5.82489 18.2376 2.1122e-14
141 1 15.1335 7.28111 15.6634 2.23155e-14
142 1 15.1335 8.73733 16.1782 -2.16077e-14
143 1 15.1335 8.73733 17.7228 -2.18089e-14
144 1 16.3946 8.00922 18.2376 2.17049e-14
145 1 13.8724 0.728111 15.6634 2.24681e-14
146 1 13.8724 2.18433 16.1782 -2.1573e-14
147 1 13.8724 2.18433 17.7228 -2.2142e-14
148 1 15.1335 1.45622 18.2376 2.31343e-14
149 1 15.1335 2.91244 15.6634 2.27041e-14
150 1 15.1335 4.36866 16.1782 -2.20865e-14
151 1 15.1335 4.36866 17.7228 -2.10804e-14
152 1 16.3946 3.64055 18.2376 2.24959e-14
153 1 16.3946 5.09678 15.6634 2.28567e-14
154 1 16.3946 6.553 16.1782 -2.28428e-14
155 1 16.3946 6.553 17.7228 -2.36894e-14
156 1 17.6557 5.82489 18.2376 2.29816e-14
157 1 17.6557 7.28111 15.6634 2.07612e-14
158 1 17.6557 8.73733 16.1782 -2.18159e-14
159 1 17.6557 8.73733 17.7228 -2.18436e-14
161 1 16.3946 0.728111 15.6634 2.2593e-14
162 1 16.3946 2.18433 16.1782 -2.226e-14
163 1 16.3946 2.18433 17.7228 -2.29053e-14
164 1 17.6557 1.45622 18.2376 2.20934e-14
165 1 17.6557 2.91244 15.6634 2.26902e-14
166 1 17.6557 4.36866 16.1782 -2.24473e-14
167 1 17.6557 4.36866 17.7228 -2.22808e-14
2 1 21.4391 2.18433 16.1782 -2.20934e-14
3 1 21.4391 2.18433 17.7228 -2.14689e-14
6 1 22.7002 4.36866 16.1782 -2.37796e-14
7 1 22.7002 4.36866 17.7228 -2.2593e-14
10 1 23.9614 6.553 16.1782 -2.12816e-14
11 1 23.9614 6.553 17.7228 -2.09346e-14
160 1 18.9169 8.00922 18.2376 2.22183e-14
168 1 18.9169 3.64055 18.2376 2.27041e-14
169 1 18.9169 5.09678 15.6634 2.04559e-14
170 1 18.9169 6.553 16.1782 -2.30232e-14
171 1 18.9169 6.553 17.7228 -2.19061e-14
172 1 20.178 5.82489 18.2376 2.19547e-14
173 1 20.178 7.28111 15.6634 2.25653e-14
174 1 20.178 8.73733 16.1782 -2.16424e-14
175 1 20.178 8.73733 17.7228 -2.26208e-14
176 1 21.4391 8.00922 18.2376 2.22877e-14
177 1 18.9169 0.728111 15.6634 2.13024e-14
178 1 18.9169 2.18433 16.1782 -2.20796e-14
179 1 18.9169 2.18433 17.7228 -2.23849e-14
180 1 20.178 1.45622 18.2376 2.21073e-14
181 1 20.178 2.91244 15.6634 2.20657e-14
182 1 20.178 4.36866 16.1782 -2.31551e-14
183 1 20.178 4.36866 17.7228 -2.30996e-14
184 1 21.4391 3.64055 18.2376 2.19824e-14
185 1 21.4391 5.09678 15.6634 2.2593e-14
186 1 21.4391 6.553 16.1782 -2.18645e-14
187 1 21.4391 6.553 17.7228 -2.21351e-14
188 1 22.7002 5.82489 18.2376 2.20379e-14
189 1 22.7002 7.28111 15.6634 2.2829e-14
190 1 22.7002 8.73733 16.1782 -2.1573e-14
191 1 22.7002 8.73733 17.7228 -2.19824e-14
192 1 23.9614 8.00922 18.2376 2.2371e-14
65 1 6.30562 9.46544 15.6634 2.32175e-14
68 1 7.56675 10.1936 18.2376 2.32869e-14
69 1 7.56675 11.6498 15.6634 2.21351e-14
70 1 7.56675 13.106 16.1782 -2.26694e-14
71 1 7.56675 13.106 17.7228 -2.2829e-14
72 1 8.82787 12.3779 18.2376 2.21628e-14
73 1 8.82787 13.8341 15.6634 2.2593e-14
74 1 8.82787 15.2903 16.1782 -2.18575e-14
75 1 8.82787 15.2903 17.7228 -2.26e-14
76 1 10.089 14.5622 18.2376 2.20379e-14
77 1 10.089 16.0184 15.6634 2.1691e-14
78 1 10.089 17.4747 16.1782 -2.23016e-14
79 1 10.089 17.4747 17.7228 -2.27804e-14
80 1 11.3501 16.7465 18.2376 2.10526e-14
81 1 8.82787 9.46544 15.6634 2.24126e-14
82 1 8.82787 10.9217 16.1782 -2.21212e-14
83 1 8.82787 10.9217 17.7228 -2.30024e-14
84 1 10.089 10.1936 18.2376 2.36616e-14
85 1 10.089 11.6498 15.6634 2.04975e-14
86 1 10.089 13.106 16.1782 -2.18228e-14
87 1 10.089 13.106 17.7228 -2.28359e-14
88 1 11.3501 12.3779 18.2376 2.3509e-14
89 1 11.3501 13.8341 15.6634 2.28151e-14
90 1 11.3501 15.2903 16.1782 -2.22808e-14
91 1 11.3501 15.2903 17.7228 -2.34257e-14
97 1 11.3501 9.46544 15.6634 2.02061e-14
98 1 11.3501 10.9217 16.1782 -2.40294e-14
99 1 11.3501 10.9217 17.7228 -2.26971e-14
92 1 12.6112 14.5622 18.2376 2.24265e-14
93 1 12.6112 16.0184 15.6634 2.2593e-14
94 1 12.6112 17.4747 16.1782 -2.13302e-14
95 1 12.6112 17.4747 17.7228 -2.08097e-14
96 1 13.8724 16.7465 18.2376 2.16077e-14
100 1 12.6112 10.1936 18.2376 2.37033e-14
101 1 12.6112 11.6498 15.6634 2.23294e-14
102 1 12.6112 13.106 16.1782 -2.32731e-14
103 1 12.6112 13.106 17.7228 -2.30926e-14
104 1 13.8724 12.3779 18.2376 2.11775e-14
105 1 13.8724 13.8341 15.6634 2.28983e-14
106 1 13.8724 15.2903 16.1782 -2.27526e-14
107 1 13.8724 15.2903 17.7228 -2.24473e-14
108 1 15.1335 14.5622 18.2376 2.32592e-14
109 1 15.1335 16.0184 15.6634 2.16771e-14
110 1 15.1335 17.4747 16.1782 -2.29122e-14
111 1 15.1335 17.4747 17.7228 -2.28081e-14
112 1 16.3946 16.7465 18.2376 2.2482e-14
113 1 13.8724 9.46544 15.6634 2.22461e-14
114 1 13.8724 10.9217 16.1782 -2.23016e-14
115 1 13.8724 10.9217 17.7228 -2.21212e-14
116 1 15.1335 10.1936 18.2376 2.16632e-14
117 1 15.1335 11.6498 15.6634 2.27318e-14
118 1 15.1335 13.106 16.1782 -2.08583e-14
119 1 15.1335 13.106 17.7228 -2.12261e-14
120 1 16.3946 12.3779 18.2376 2.19547e-14
121 1 16.3946 13.8341 15.6634 2.22877e-14
122 1 16.3946 15.2903 16.1782 -2.28498e-14
123 1 16.3946 15.2903 17.7228 -2.2489e-14
124 1 17.6557 14.5622 18.2376 2.21073e-14
125 1 17.6557 16.0184 15.6634 2.24126e-14
126 1 17.6557 17.4747 16.1782 -2.23571e-14
127 1 17.6557 17.4747 17.7228 -2.27665e-14
193 1 16.3946 9.46544 15.6634 2.1802e-14
194 1 16.3946 10.9217 16.1782 -2.34396e-14
195 1 16.3946 10.9217 17.7228 -2.30094e-14
196 1 17.6557 10.1936 18.2376 2.29955e-14
197 1 17.6557 11.6498 15.6634 2.06779e-14
198 1 17.6557 13.106 16.1782 -2.06224e-14
199 1 17.6557 13.106 17.7228 -2.18436e-14
128 1 18.9169 16.7465 18.2376 2.27318e-14
200 1 18.9169 12.3779 18.2376 2.26624e-14
201 1 18.9169 13.8341 15.6634 2.26347e-14
202 1 18.9169 15.2903 16.1782 -2.16632e-14
203 1 18.9169 15.2903 17.7228 -2.22947e-14
204 1 20.178 14.5622 18.2376 2.21212e-14
205 1 20.178 16.0184 15.6634 2.26624e-14
206 1 20.178 17.4747 16.1782 -2.21073e-14
207 1 20.178 17.4747 17.7228 -2.24543e-14
208 1 21.4391 16.7465 18.2376 2.2593e-14
209 1 18.9169 9.46544 15.6634 2.21906e-14
210 1 18.9169 10.9217 16.1782 -2.33841e-14
211 1 18.9169 10.9217 17.7228 -2.30718e-14
212 1 20.178 10.1936 18.2376 2.33147e-14
213 1 20.178 11.6498 15.6634 2.20379e-14
214 1 20.178 13.106 16.1782 -2.14898e-14
215 1 20.178 13.106 17.7228 -2.17118e-14
216 1 21.4391 12.3779 18.2376 2.18436e-14
217 1 21.4391 13.8341 15.6634 2.24126e-14
218 1 21.4391 15.2903 16.1782 -2.23502e-14
219 1 21.4391 15.2903 17.7228 -2.1913e-14
220 1 22.7002 14.5622 18.2376 2.30232e-14
221 1 22.7002 16.0184 15.6634 2.28983e-14
222 1 22.7002 17.4747 16.1782 -2.25861e-14
223 1 22.7002 17.4747 17.7228 -2.27526e-14
224 1 23.9614 16.7465 18.2376 2.27457e-14
225 1 21.4391 9.46544 15.6634 2.23432e-14
226 1 21.4391 10.9217 16.1782 -2.28706e-14
227 1 21.4391 10.9217 17.7228 -2.31898e-14
228 1 22.7002 10.1936 18.2376 2.32037e-14
229 1 22.7002 11.6498 15.6634 2.2829e-14
230 1 22.7002 13.106 16.1782 -2.34604e-14
231 1 22.7002 13.106 17.7228 -2.32939e-14
232 1 23.9614 12.3779 18.2376 2.2829e-14
233 1 23.9614 13.8341 15.6634 2.25792e-14
234 1 23.9614 15.2903 16.1782 -2.28012e-14
235 1 23.9614 15.2903 17.7228 -2.226e-14
241 1 23.9614 9.46544 15.6634 2.25098e-14
242 1 23.9614 10.9217 16.1782 -2.20171e-14
243 1 23.9614 10.9217 17.7228 -2.27873e-14
66 1 26.4836 10.9217 16.1782 -2.18991e-14
67 1 26.4836 10.9217 17.7228 -2.22669e-14
236 1 25.2225 14.5622 18.2376 2.28845e-14
237 1 25.2225 16.0184 15.6634 2.28983e-14
238 1 25.2225 17.4747 16.1782 -2.21628e-14
239 1 25.2225 17.4747 17.7228 -2.27388e-14
240 1 26.4836 16.7465 18.2376 2.30094e-14
244 1 25.2225 10.1936 18.2376 2.14828e-14
245 1 25.2225 11.6498 15.6634 2.29816e-14
246 1 25.2225 13.106 16.1782 -2.16493e-14
247 1 25.2225 13.106 17.7228 -2.16077e-14
248 1 26.4836 12.3779 18.2376 2.19685e-14
249 1 26.4836 13.8341 15.6634 2.3051e-14
250 1 26.4836 15.2903 16.1782 -2.23155e-14
251 1 26.4836 15.2903 17.7228 -2.21004e-14
252 1 27.7447 14.5622 18.2376 2.21767e-14
253 1 27.7447 16.0184 15.6634 2.21351e-14
254 1 27.7447 17.4747 16.1782 -2.20865e-14
255 1 27.7447 17.4747 17.7228 -2.23641e-14
256 1 29.0059 16.7465 18.2376 2.28012e-14
