ITEM: TIMESTEP
500
ITEM: NUMBER OF ATOMS
256
ITEM: BOX BOUNDS xy xz yz pp pp pp
-6.3596408216554795e-02 3.0390323217558354e+01 1.0148727701402480e+01
-5.1726092997816220e-02 1.7526385918012984e+01 0.0000000000000000e+00
0.0000000000000000e+00 4.4198048819842896e+01 0.0000000000000000e+00
ITEM: ATOMS id type x y z q
1 1 1.20211 0.682654 15.414 1.59548e-06
4 1 2.47216 1.40791 18.5008 -4.66218e-06
5 1 2.46992 2.87519 15.4052 -3.81186e-07
8 1 3.74021 3.61073 18.4949 -5.51048e-06
9 1 3.74258 5.07339 15.4084 -4.55896e-06
12 1 5.0142 5.81243 18.498 7.31132e-06
13 1 5.01121 7.27511 15.4028 -3.68893e-07
14 1 5.0116 8.74166 15.42 -4.39738e-06
17 1 3.74231 0.678277 15.4105 -1.20892e-06
18 1 3.74458 2.14524 15.4232 -9.94155e-08
19 1 3.7426 2.14675 18.4872 2.71043e-06
20 1 5.0127 1.41762 18.5006 -2.17277e-06
21 1 5.01433 2.87633 15.4122 3.81008e-07
22 1 5.01575 4.34013 15.4185 5.14656e-06
23 1 5.01328 4.34477 18.4757 1.21555e-06
2 1 1.1988 2.14516 15.4247 -3.1054e-06
6 1 2.47149 4.34599 15.4213 1.11625e-07
10 1 3.74486 6.53997 15.4198 4.92939e-07
95 1 2.46933 -0.0502124 18.486 1.51469e-06
111 1 5.01295 -0.0451023 18.4827 3.53175e-07
16 1 6.2767 8.00319 18.5004 -4.22726e-06
24 1 6.2831 3.60988 18.5 -9.41896e-07
25 1 6.2864 5.07679 15.4072 -2.67626e-06
26 1 6.28254 6.54135 15.4225 3.22313e-06
27 1 6.28115 6.53867 18.4814 -5.99644e-07
28 1 7.54758 5.80978 18.4953 2.86657e-07
29 1 7.55105 7.27524 15.4051 -3.41687e-06
30 1 7.54902 8.738 15.4165 2.75436e-06
32 1 8.81909 8.00343 18.4912 1.51019e-06
33 1 6.27845 0.681441 15.4025 -2.81172e-06
34 1 6.27924 2.14724 15.4233 1.62094e-06
35 1 6.27596 2.14786 18.4806 -1.43932e-06
36 1 7.54566 1.41601 18.4931 1.73548e-06
37 1 7.55072 2.87728 15.4082 -5.82891e-06
38 1 7.55196 4.34448 15.4206 -1.49341e-06
39 1 7.55144 4.34627 18.4802 2.03048e-06
40 1 8.81883 3.60694 18.4966 2.17116e-06
41 1 8.82169 5.07753 15.4104 1.03844e-05
42 1 8.81685 6.54152 15.4216 -5.38143e-06
43 1 8.81902 6.53469 18.4793 2.88307e-06
44 1 10.0895 5.80448 18.4894 -5.3778e-06
45 1 10.0857 7.27242 15.4035 1.24434e-06
46 1 10.0841 8.73748 15.4166 8.32908e-07
48 1 11.356 8.00099 18.4929 -1.45553e-06
49 1 8.81973 0.683299 15.4092 4.17872e-06
50 1 8.82074 2.14598 15.4181 8.37038e-07
51 1 8.81662 2.14773 18.4782 -2.67897e-06
52 1 10.0854 1.4123 18.4924 2.35192e-06
53 1 10.0853 2.87936 15.4044 4.32461e-07
54 1 10.0877 4.34244 15.4129 -4.25139e-06
55 1 10.0852 4.34293 18.4773 -4.66908e-07
56 1 11.3559 3.60702 18.496 1.16207e-06
57 1 11.3519 5.07511 15.4078 -3.31203e-06
58 1 11.3577 6.53938 15.4159 5.37061e-07
59 1 11.3565 6.53415 18.4758 -3.75797e-07
129 1 11.3553 0.682578 15.399 -1.86344e-06
130 1 11.3555 2.15181 15.4277 4.07662e-07
131 1 11.3635 2.14204 18.4766 -5.18431e-06
127 1 7.54946 -0.0540004 18.4775 4.31389e-07
207 1 10.0893 -0.051852 18.48 -1.39332e-06
60 1 12.6275 5.80335 18.4894 1.77051e-06
61 1 12.624 7.27581 15.3994 4.97032e-07
62 1 12.6267 8.73515 15.4153 1.15796e-06
64 1 13.8954 7.99991 18.4934 -3.24099e-06
132 1 12.6296 1.41281 18.4917 2.7999e-06
133 1 12.6213 2.8824 15.397 2.53972e-06
134 1 12.6233 4.34322 15.4149 2.90537e-06
135 1 12.6259 4.34006 18.4768 -1.16461e-06
136 1 13.8994 3.60827 18.4905 1.46362e-06
137 1 13.8915 5.07177 15.4036 1.90159e-06
138 1 13.8917 6.53701 15.4157 3.85821e-07
139 1 13.8941 6.53375 18.4742 9.43736e-07
140 1 15.1643 5.80369 18.4892 1.58422e-06
141 1 15.168 7.27277 15.4013 -2.13698e-06
142 1 15.1633 8.73961 15.4142 1.01157e-06
144 1 16.4347 8.0026 18.4964 -4.67418e-06
145 1 13.896 0.683524 15.413 -2.37677e-06
146 1 13.8893 2.14879 15.4237 -3.46088e-08
147 1 13.8992 2.13955 18.4812 -9.11664e-07
148 1 15.1683 1.41549 18.4944 3.92779e-06
149 1 15.1643 2.87932 15.4114 -5.53353e-07
150 1 15.1613 4.34738 15.4279 -4.63997e-06
151 1 15.1639 4.34483 18.4712 -1.2328e-06
152 1 16.4349 3.61432 18.4987 3.79167e-06
153 1 16.4326 5.07266 15.4101 1.40842e-06
154 1 16.4372 6.53798 15.4183 -2.6152e-07
155 1 16.4326 6.53585 18.4799 1.79464e-07
156 1 17.7012 5.80947 18.4941 -6.42001e-07
157 1 17.7044 7.26932 15.4038 8.75446e-08
158 1 17.7008 8.73356 15.4194 -2.77138e-06
161 1 16.4308 0.68234 15.4107 3.60304e-06
162 1 16.44 2.14689 15.4217 -1.04031e-06
163 1 16.4371 2.14521 18.4819 -4.47214e-07
164 1 17.7052 1.41246 18.4973 -1.10386e-06
165 1 17.7024 2.88039 15.4113 -2.63165e-08
166 1 17.7021 4.3406 15.422 5.17776e-07
167 1 17.7031 4.34699 18.4851 -1.6237e-07
223 1 12.6328 -0.0460841 18.4775 -4.26423e-06
239 1 15.1689 -0.0507146 18.4758 2.36905e-07
255 1 17.7013 -0.0495013 18.4832 3.29783e-06
3 1 21.5102 2.14653 18.4787 5.58611e-08
7 1 22.7796 4.34097 18.4797 -1.33506e-07
11 1 24.0508 6.54057 18.48 -1.71575e-06
160 1 18.977 8.00671 18.4913 -1.41959e-07
168 1 18.9736 3.61069 18.5018 -3.24312e-06
169 1 18.9696 5.07813 15.4056 -2.08763e-06
170 1 18.9717 6.5406 15.4286 2.01447e-06
171 1 18.9706 6.54208 18.4824 1.25525e-06
172 1 20.2425 5.80941 18.4913 2.47755e-06
173 1 20.2381 7.27151 15.4035 4.11062e-07
174 1 20.2402 8.73475 15.4231 -1.63756e-06
176 1 21.5088 8.00368 18.4968 4.21417e-06
177 1 18.9696 0.683597 15.41 -3.05278e-06
178 1 18.9695 2.14845 15.4277 -3.47632e-08
179 1 18.9703 2.14233 18.4864 -2.27806e-07
180 1 20.241 1.41216 18.4988 -1.55218e-06
181 1 20.2429 2.88037 15.4085 -2.22093e-06
182 1 20.2383 4.34313 15.4279 3.349e-06
183 1 20.2418 4.34462 18.4807 1.2252e-06
184 1 21.5069 3.6134 18.502 3.12986e-06
185 1 21.5058 5.07206 15.4151 6.61131e-06
186 1 21.5102 6.53621 15.4232 -2.10913e-06
187 1 21.5116 6.53975 18.4825 -3.13878e-06
188 1 22.7814 5.80866 18.5042 -2.958e-07
189 1 22.7798 7.27304 15.4098 -1.24967e-06
190 1 22.7747 8.73933 15.422 -1.07654e-06
192 1 24.0488 8.00187 18.4898 -4.45855e-07
79 1 20.2416 -0.0526141 18.4862 1.21677e-06
31 1 7.54393 8.73922 18.4801 -1.01408e-06
47 1 10.089 8.73718 18.4757 1.52501e-06
65 1 6.28461 9.4695 15.4065 -4.99699e-07
68 1 7.55273 10.2052 18.4971 -2.69182e-07
69 1 7.54759 11.6706 15.4025 6.61452e-06
70 1 7.54184 13.1313 15.4221 -2.6956e-06
72 1 8.81967 12.4019 18.4954 2.66351e-06
73 1 8.81583 13.8578 15.4127 -1.09076e-06
74 1 8.81815 15.3313 15.421 4.97591e-07
76 1 10.0875 14.5947 18.4939 -2.17477e-06
77 1 10.0874 16.0633 15.4097 -3.7414e-06
78 1 10.0845 17.5286 15.4275 3.61081e-06
80 1 11.3509 16.7922 18.4957 1.3263e-06
81 1 8.81515 9.4655 15.4 -1.20892e-07
82 1 8.81233 10.932 15.4207 -2.80026e-06
83 1 8.81625 10.9331 18.4785 2.45586e-06
84 1 10.0873 10.2061 18.49 -3.30603e-06
85 1 10.0815 11.6685 15.4062 1.56707e-06
86 1 10.0883 13.1305 15.4227 -3.41353e-06
87 1 10.0921 13.1328 18.4743 -1.90222e-06
88 1 11.3574 12.3991 18.491 2.33974e-07
89 1 11.3502 13.863 15.4016 6.95845e-06
90 1 11.3498 15.3256 15.4248 -2.95008e-09
91 1 11.3488 15.3302 18.4849 -2.63881e-06
97 1 11.3544 9.46558 15.4005 -3.1278e-06
98 1 11.354 10.9339 15.4135 5.83801e-06
99 1 11.3587 10.9344 18.4754 2.0002e-06
66 1 6.2766 10.9325 15.4249 -3.37185e-06
63 1 12.6265 8.73914 18.4725 1.6975e-07
143 1 15.1625 8.73583 18.4749 -6.32729e-08
159 1 17.704 8.73626 18.4771 2.3966e-06
92 1 12.6211 14.5977 18.4952 2.50593e-06
93 1 12.6193 16.0649 15.4086 -7.28007e-07
94 1 12.6189 17.5308 15.4262 2.68159e-06
96 1 13.8878 16.7942 18.4972 -4.05307e-07
100 1 12.6258 10.2062 18.4849 -3.14898e-07
101 1 12.6269 11.6677 15.4038 -2.37314e-06
102 1 12.6205 13.1346 15.4127 -4.26286e-06
103 1 12.6233 13.1265 18.4733 -1.93817e-06
104 1 13.8961 12.3992 18.4952 -1.36077e-07
105 1 13.8935 13.8613 15.4032 -2.27328e-06
106 1 13.891 15.328 15.4239 -2.86069e-07
107 1 13.8955 15.3279 18.4755 -1.90103e-06
108 1 15.1629 14.5922 18.4914 9.78055e-07
109 1 15.1609 16.0592 15.4071 1.53487e-06
110 1 15.1574 17.5231 15.4253 8.32157e-07
112 1 16.434 16.7919 18.5011 3.29171e-07
113 1 13.8942 9.46817 15.3963 -2.14927e-06
114 1 13.8957 10.9311 15.4102 7.7258e-08
115 1 13.8924 10.9342 18.4704 1.13654e-06
116 1 15.1624 10.2035 18.4844 -2.05207e-06
117 1 15.1659 11.6689 15.404 2.89186e-06
118 1 15.1612 13.1323 15.4194 3.57497e-06
119 1 15.1695 13.1311 18.4806 2.18673e-06
120 1 16.4343 12.401 18.4949 4.79919e-07
121 1 16.4262 13.8638 15.3988 -5.20627e-06
122 1 16.4276 15.3274 15.4202 1.75508e-06
123 1 16.4366 15.3232 18.4796 2.51337e-06
124 1 17.7066 14.5958 18.4959 -3.61089e-06
125 1 17.6946 16.06 15.406 -1.97103e-07
126 1 17.7046 17.5267 15.424 -1.95286e-06
193 1 16.4328 9.46961 15.407 1.60853e-06
194 1 16.4359 10.934 15.4223 9.30397e-07
195 1 16.4365 10.9354 18.4751 1.68778e-06
196 1 17.7065 10.2025 18.4922 3.8669e-06
197 1 17.701 11.6662 15.4079 -3.62128e-06
198 1 17.6993 13.1331 15.4121 6.82842e-07
199 1 17.7076 13.1311 18.4764 1.62123e-06
175 1 20.2439 8.73432 18.4789 -4.51637e-06
191 1 22.7839 8.74044 18.4792 -5.29842e-06
128 1 18.9693 16.7915 18.4907 2.63217e-06
200 1 18.9701 12.3964 18.495 -1.0989e-06
201 1 18.9661 13.8669 15.4075 5.24397e-07
202 1 18.966 15.3299 15.4188 1.28038e-06
203 1 18.9701 15.3228 18.4803 -1.63506e-06
204 1 20.2388 14.5975 18.4915 -3.06076e-06
205 1 20.2328 16.0686 15.4078 4.07596e-06
206 1 20.2307 17.532 15.4201 -2.51064e-06
208 1 21.5096 16.7959 18.4972 2.75346e-06
209 1 18.9698 9.46673 15.4077 -8.32806e-07
210 1 18.9694 10.9338 15.4206 3.2302e-06
211 1 18.9701 10.9361 18.4819 -1.50758e-06
212 1 20.2408 10.1992 18.4977 3.47917e-07
213 1 20.2393 11.6647 15.4049 -7.3724e-07
214 1 20.2365 13.1347 15.4174 -2.02107e-06
215 1 20.2406 13.1345 18.4796 1.8673e-06
216 1 21.5116 12.3942 18.494 -8.63288e-07
217 1 21.5091 13.8688 15.4073 4.6954e-07
218 1 21.5042 15.3325 15.4184 -2.48738e-06
219 1 21.5084 15.3259 18.4795 2.78575e-06
220 1 22.7762 14.5941 18.4937 8.59064e-08
221 1 22.7725 16.0675 15.4077 1.54042e-06
222 1 22.7754 17.5291 15.4231 2.33482e-06
224 1 24.0489 16.7967 18.4917 -1.17972e-07
225 1 21.5072 9.46707 15.4073 4.51829e-06
226 1 21.5074 10.9317 15.4216 -2.39576e-06
227 1 21.5122 10.9319 18.4818 2.92658e-06
228 1 22.7777 10.202 18.4937 -2.27134e-07
229 1 22.7792 11.6691 15.404 -4.49185e-07
230 1 22.7801 13.1373 15.4291 2.91193e-06
231 1 22.7758 13.133 18.4766 -1.2655e-06
232 1 24.049 12.3986 18.5003 -1.68816e-06
233 1 24.0466 13.8623 15.41 -4.59812e-06
234 1 24.0427 15.3303 15.4357 1.03079e-06
235 1 24.0448 15.3285 18.4813 -2.06102e-06
241 1 24.0449 9.47407 15.411 3.58997e-06
242 1 24.0492 10.9353 15.4197 1.96068e-06
243 1 24.043 10.9297 18.4798 -2.22747e-08
15 1 25.314 8.73579 18.4836 6.42454e-06
71 1 27.8495 13.135 18.4765 -2.71842e-08
75 1 29.1226 15.3261 18.4761 8.08528e-07
67 1 26.5872 10.9323 18.4887 1.62538e-07
236 1 25.318 14.5953 18.4909 -2.15277e-06
237 1 25.3166 16.067 15.4073 1.23049e-06
238 1 25.3127 17.5285 15.4248 -4.91093e-07
240 1 26.5835 16.7934 18.5012 -6.77928e-08
244 1 25.31 10.2001 18.4924 1.66034e-06
245 1 25.3131 11.6654 15.4087 1.68074e-07
246 1 25.3168 13.1327 15.4264 4.6497e-07
247 1 25.3166 13.1327 18.4834 1.29939e-06
248 1 26.5819 12.402 18.4952 -2.01644e-06
249 1 26.5853 13.8617 15.4083 -5.61588e-07
250 1 26.584 15.3278 15.4282 9.14049e-07
251 1 26.5889 15.3305 18.4831 -1.87343e-06
252 1 27.8563 14.5984 18.4972 1.62333e-06
253 1 27.8516 16.0622 15.41 1.97926e-06
254 1 27.8492 17.5291 15.4239 -2.97244e-06
256 1 29.1221 16.7913 18.4954 -2.65295e-07
