ITEM: TIMESTEP
10500
ITEM: NUMBER OF ATOMS
384
ITEM: BOX BOUNDS xy xz yz pp pp pp
-1.3540988627929679e-01 3.0533739210829161e+01 1.0220330216610561e+01
-1.1373569014286415e-01 1.7588395515158059e+01 0.0000000000000000e+00
0.0000000000000000e+00 4.4198048819842896e+01 0.0000000000000000e+00
ITEM: ATOMS id type x y z q
1 2 1.11532 0.612914 14.1412 -0.0678082
2 1 1.15808 0.639156 15.5685 0.116922
5 1 2.381 1.42223 18.3219 0.109158
7 2 2.43823 2.82416 14.2255 -0.071274
8 1 2.35749 2.79421 15.6639 0.103921
11 1 3.6947 3.52372 18.2537 0.103609
13 2 3.71931 5.01521 14.2726 -0.072909
14 1 3.67075 4.99561 15.6014 0.116403
17 1 4.96569 5.76048 18.3181 0.111763
19 2 4.9143 7.26837 14.3557 -0.0753136
20 1 4.93738 7.16716 15.6711 0.105806
25 2 3.75104 0.692623 14.18 -0.0706606
26 1 3.7127 0.696064 15.5279 0.117455
27 1 3.70306 2.13312 16.149 -0.0364833
28 1 3.67579 2.00106 17.6646 -0.0388172
29 1 4.9818 1.26517 18.2333 0.107326
31 2 5.08226 2.89937 14.2212 -0.0718721
32 1 5.01147 2.89494 15.612 0.110172
33 1 5.00085 4.31189 16.1565 -0.039314
34 1 4.97662 4.26788 17.7714 -0.0367144
9 1 2.46951 4.22685 16.1986 -0.0418366
15 1 3.63229 6.44819 16.1545 -0.0418913
142 1 2.41664 -0.0635624 17.8099 -0.0383129
10 1 2.42964 4.34111 17.7905 -0.0347023
141 1 2.47192 -0.0250054 16.0655 -0.0399706
165 1 4.92909 -0.131192 16.177 -0.0393182
23 1 6.34361 7.99341 18.1949 0.100925
35 1 6.26967 3.60584 18.3357 0.113153
37 2 6.29119 5.01361 14.2727 -0.0727846
38 1 6.29151 5.0014 15.6671 0.106487
39 1 6.26762 6.45743 16.1835 -0.0394393
40 1 6.23939 6.48494 17.7691 -0.0344848
41 1 7.48411 5.77174 18.2422 0.100234
43 2 7.55699 7.11832 14.1962 -0.0702097
44 1 7.52709 7.13716 15.6162 0.110899
45 1 7.55115 8.65489 16.1285 -0.0385997
47 1 8.84802 8.03583 18.2613 0.110938
49 2 6.16774 0.675477 14.1878 -0.0707015
50 1 6.21607 0.665997 15.6173 0.10587
51 1 6.25548 2.08807 16.1636 -0.0434608
52 1 6.21266 2.08004 17.7799 -0.029609
53 1 7.52406 1.38512 18.2055 0.103458
55 2 7.65893 2.94831 14.2104 -0.071677
56 1 7.55554 2.83669 15.5769 0.115877
57 1 7.59248 4.22486 16.2197 -0.0449846
58 1 7.55668 4.2684 17.808 -0.031058
59 1 8.88272 3.53425 18.2715 0.107998
61 2 8.8204 5.02181 14.1691 -0.0694597
62 1 8.81722 5.0125 15.6764 0.106098
63 1 8.83706 6.48704 16.2347 -0.0458438
64 1 8.80524 6.54992 17.7756 -0.0273517
65 1 10.0877 5.78552 18.2622 0.104855
67 2 10.0273 7.2764 14.2356 -0.0723196
68 1 10.0692 7.2606 15.6044 0.108801
71 1 11.3951 8.00253 18.2187 0.103133
73 2 8.85626 0.533252 14.0804 -0.0681344
74 1 8.83945 0.661078 15.5421 0.109183
75 1 8.82497 2.17222 16.1447 -0.0397654
76 1 8.91052 2.08579 17.695 -0.035188
77 1 10.1324 1.35707 18.2301 0.109945
79 2 10.1534 2.87644 14.2631 -0.0748176
80 1 10.1415 2.88258 15.5844 0.111278
81 1 10.1334 4.31419 16.2301 -0.0448053
82 1 10.1591 4.32756 17.7637 -0.0311548
83 1 11.464 3.56067 18.3019 0.116174
85 2 11.3185 5.12676 14.192 -0.0708088
86 1 11.3259 5.1084 15.5942 0.111693
87 1 11.3964 6.55721 16.1951 -0.0425753
88 1 11.4167 6.47378 17.7391 -0.0308849
193 2 11.2922 0.683286 14.1852 -0.0736083
194 1 11.3654 0.66621 15.5116 0.109398
195 1 11.3557 2.098 16.0379 -0.0395966
196 1 11.3513 2.12915 17.7228 -0.0417216
190 1 7.53501 -0.0868557 17.6974 -0.0372885
46 1 7.58016 8.72536 17.7083 -0.0370775
70 1 10.0944 8.68909 17.6426 -0.044816
189 1 7.59189 5.42976e-05 16.1116 -0.0349226
89 1 12.6981 5.78183 18.2648 0.111638
91 2 12.6404 7.21686 14.1799 -0.0690225
92 1 12.6562 7.29976 15.621 0.109518
95 1 13.9528 7.9784 18.2909 0.109658
197 1 12.6357 1.36942 18.2056 0.108057
199 2 12.6308 2.97102 14.1584 -0.0707926
200 1 12.6009 2.853 15.5786 0.10645
201 1 12.6132 4.30317 16.0944 -0.0316058
202 1 12.674 4.31432 17.6301 -0.047266
203 1 13.9447 3.57722 18.209 0.10553
205 2 13.9491 5.09554 14.2321 -0.0711504
206 1 13.8418 5.0852 15.6412 0.10717
207 1 13.9723 6.5234 16.1665 -0.0329941
208 1 13.9381 6.5218 17.7465 -0.0413647
209 1 15.1995 5.77942 18.3252 0.115277
211 2 15.2673 7.30993 14.3371 -0.0732584
212 1 15.2859 7.21286 15.7308 0.1047
213 1 15.2145 8.70688 16.2312 -0.0356729
215 1 16.5238 7.98764 18.3822 0.114354
217 2 13.9482 0.69747 14.0759 -0.0686748
218 1 13.8755 0.624369 15.4895 0.116787
219 1 13.8957 2.03918 16.1069 -0.0393174
220 1 13.8983 2.12619 17.7258 -0.0341651
221 1 15.1759 1.36095 18.2114 0.10894
223 2 15.2811 2.93507 14.2062 -0.0709815
224 1 15.1972 2.85058 15.5756 0.112661
225 1 15.1273 4.31217 16.1527 -0.0319044
226 1 15.2201 4.32654 17.6719 -0.0431575
227 1 16.4715 3.57656 18.2592 0.108866
229 2 16.3879 5.086 14.375 -0.0752164
230 1 16.4366 5.03575 15.6935 0.106962
231 1 16.5972 6.46951 16.261 -0.042567
232 1 16.4873 6.46844 17.8323 -0.0333726
233 1 17.7877 5.78929 18.3078 0.107197
235 2 17.5391 7.3383 14.2683 -0.0705968
236 1 17.7294 7.27541 15.6593 0.117113
237 1 17.6886 8.68555 16.2709 -0.0445193
241 2 16.4198 0.571813 14.311 -0.0742569
242 1 16.5111 0.62535 15.6395 0.112015
243 1 16.4453 2.07075 16.0933 -0.0370577
244 1 16.4566 2.09073 17.7251 -0.0400036
245 1 17.7396 1.41427 18.3236 0.115129
247 2 17.6464 2.82335 14.25 -0.0707318
248 1 17.6611 2.85351 15.6482 0.108978
249 1 17.8003 4.31832 16.1962 -0.0349016
250 1 17.7687 4.28099 17.7593 -0.0391634
358 1 15.1978 -0.117449 17.6905 -0.0366464
382 1 17.7237 -0.0957067 17.8088 -0.0383791
94 1 12.6629 8.76452 17.7633 -0.0366735
214 1 15.2382 8.74162 17.8009 -0.0383755
238 1 17.7291 8.65556 17.8599 -0.0362529
3 1 21.5205 2.04777 16.2101 -0.0410275
4 1 21.4945 2.1204 17.8385 -0.0386543
16 1 24.189 6.49385 17.838 -0.0318945
239 1 19.0896 8.03497 18.3096 0.10821
251 1 19.0303 3.60865 18.3299 0.111323
253 2 19.0192 5.16967 14.2437 -0.0696669
254 1 19.0428 5.06459 15.6823 0.106967
255 1 19.0822 6.51101 16.201 -0.0372972
256 1 19.053 6.56826 17.7733 -0.0366227
257 1 20.3125 5.73302 18.3578 0.11198
259 2 20.3178 7.20663 14.2387 -0.0703449
260 1 20.3376 7.22869 15.6545 0.108976
263 1 21.6177 7.96263 18.2738 0.106793
265 2 19.0204 0.668115 14.3877 -0.0753726
266 1 19.0474 0.64197 15.7063 0.107606
267 1 18.9704 2.07899 16.1709 -0.0304167
268 1 18.9419 2.16029 17.7563 -0.0438807
269 1 20.2315 1.34781 18.3369 0.108219
271 2 20.2459 2.82174 14.3319 -0.0733686
272 1 20.2523 2.83427 15.7235 0.102687
273 1 20.4021 4.27966 16.2353 -0.0337403
274 1 20.3182 4.30055 17.8167 -0.0403035
275 1 21.6601 3.51598 18.4138 0.11651
277 2 21.6265 5.06032 14.3059 -0.0731307
278 1 21.6673 5.02784 15.6826 0.106434
279 1 21.6279 6.52195 16.2338 -0.0382367
280 1 21.4986 6.5315 17.7568 -0.0395633
281 1 22.8365 5.83459 18.2831 0.101901
283 2 22.8269 7.29214 14.2559 -0.0719999
284 1 22.9012 7.27477 15.6262 0.111862
287 1 24.1231 8.01109 18.2855 0.10847
118 1 20.2636 -0.0847293 17.8382 -0.0339991
262 1 20.3477 8.7612 17.7232 -0.0384966
22 1 4.94475 8.69609 17.6966 -0.0356689
69 1 10.1381 8.73065 16.0724 -0.0342201
97 2 6.26955 9.37402 14.2469 -0.0722024
98 1 6.25681 9.3884 15.6431 0.106041
101 1 7.56326 10.2623 18.2227 0.107039
103 2 7.49141 11.5783 14.1701 -0.0694772
104 1 7.59815 11.5453 15.58 0.110072
105 1 7.5403 13.0918 16.0891 -0.0263429
107 1 8.81879 12.4341 18.2173 0.111626
109 2 8.85312 13.9963 14.2053 -0.0689879
110 1 8.82093 13.8952 15.6246 0.110601
111 1 8.8956 15.3317 16.2456 -0.0358627
113 1 10.089 14.6441 18.2887 0.109234
115 2 10.09 16.1975 14.2048 -0.0683079
116 1 10.1149 16.2045 15.7303 0.103245
117 1 10.118 17.6406 16.2551 -0.0442561
119 1 11.4017 16.9508 18.3545 0.111908
121 2 8.80329 9.46452 14.1818 -0.0707657
122 1 8.81108 9.31714 15.5565 0.112798
123 1 8.81588 10.8339 16.1292 -0.033779
124 1 8.90525 10.8902 17.6482 -0.0402612
125 1 10.1059 10.1969 18.2568 0.112974
127 2 10.1349 11.7867 14.2426 -0.0716383
128 1 10.1088 11.691 15.6704 0.102257
129 1 10.0879 13.1901 16.1367 -0.0317006
130 1 10.0302 13.1821 17.7067 -0.0377924
131 1 11.4355 12.4381 18.3166 0.114394
133 2 11.3069 13.9682 14.2916 -0.0722853
134 1 11.379 13.9484 15.6863 0.10444
135 1 11.442 15.4587 16.2194 -0.0350829
136 1 11.4466 15.4578 17.7577 -0.0366594
145 2 11.2697 9.57382 14.1246 -0.0678709
146 1 11.4004 9.48826 15.5945 0.10775
147 1 11.366 10.9686 16.1776 -0.0372017
148 1 11.3361 11.0305 17.7372 -0.0409862
99 1 6.31258 10.8633 16.1354 -0.0404217
166 1 15.2458 17.5448 17.7398 -0.0355695
93 1 12.7183 8.71239 16.1439 -0.0413449
137 1 12.6263 14.655 18.3263 0.109734
139 2 12.7172 16.0605 14.2453 -0.0712918
140 1 12.6862 16.1872 15.6376 0.107332
143 1 13.9099 16.8263 18.2976 0.108907
149 1 12.5913 10.1974 18.3609 0.115856
151 2 12.6597 11.761 14.2478 -0.071161
152 1 12.6555 11.6936 15.629 0.111709
153 1 12.6461 13.1707 16.1879 -0.036568
154 1 12.6636 13.1611 17.7754 -0.0380879
155 1 13.9335 12.3702 18.2553 0.0989172
157 2 13.8737 13.9249 14.2226 -0.0697203
158 1 13.8935 14.0024 15.6157 0.113982
159 1 13.9715 15.4187 16.1945 -0.0407099
160 1 13.9224 15.3971 17.7945 -0.0372266
161 1 15.2405 14.6475 18.3902 0.113471
163 2 15.3554 16.0972 14.2273 -0.0707037
164 1 15.2623 16.1275 15.68 0.105434
167 1 16.5292 16.8535 18.2752 0.10708
169 2 13.9522 9.52576 14.1869 -0.0681387
170 1 13.9496 9.47711 15.6303 0.11239
171 1 13.8919 10.9683 16.1979 -0.041825
172 1 13.85 10.8889 17.8275 -0.035294
173 1 15.1728 10.2055 18.3408 0.106921
175 2 15.132 11.6857 14.1713 -0.0664401
176 1 15.1736 11.7293 15.6949 0.108939
177 1 15.1648 13.1657 16.2547 -0.0422669
178 1 15.2169 13.1826 17.8202 -0.03257
179 1 16.4888 12.4505 18.3264 0.10341
181 2 16.5033 13.9402 14.2106 -0.0684533
182 1 16.4402 13.9271 15.7022 0.107833
183 1 16.5271 15.3754 16.2683 -0.0388077
184 1 16.4888 15.325 17.8222 -0.0370623
185 1 17.8167 14.6162 18.3925 0.117545
187 2 17.7088 16.0438 14.22 -0.0711883
188 1 17.8334 16.1634 15.6283 0.106577
289 2 16.4081 9.41997 14.313 -0.0714852
290 1 16.4516 9.4719 15.747 0.107352
291 1 16.4059 10.9415 16.284 -0.0437599
292 1 16.4765 10.9381 17.8534 -0.0300927
293 1 17.7281 10.1529 18.3257 0.104667
295 2 17.5468 11.7029 14.3078 -0.071158
296 1 17.6331 11.696 15.7311 0.103401
297 1 17.6673 13.2158 16.244 -0.0383835
298 1 17.7841 13.1579 17.8407 -0.0376792
310 1 20.2964 17.4438 17.6157 -0.0381889
334 1 22.9345 17.6283 17.636 -0.0398678
261 1 20.289 8.78021 16.1616 -0.0337691
285 1 22.8256 8.72383 16.1789 -0.0388374
286 1 22.8843 8.82954 17.748 -0.0356915
191 1 19.0177 16.7959 18.2462 0.110483
299 1 19.0195 12.3797 18.3245 0.111032
301 2 18.9845 13.8269 14.2383 -0.0711498
302 1 18.9917 13.8739 15.6592 0.107442
303 1 19.0619 15.4399 16.1302 -0.0379966
304 1 18.9958 15.3301 17.7566 -0.0420866
305 1 20.3555 14.682 18.2623 0.113996
307 2 20.3065 16.0472 14.0789 -0.0685498
308 1 20.3094 16.0763 15.5311 0.109374
309 1 20.2961 17.5312 16.0809 -0.035084
311 1 21.6161 16.876 18.22 0.111506
313 2 18.8391 9.42931 14.3033 -0.072
314 1 18.9554 9.45561 15.6588 0.109978
315 1 18.9723 10.913 16.1725 -0.029881
316 1 19.0372 10.9483 17.7441 -0.041042
317 1 20.3222 10.2379 18.258 0.106608
319 2 20.2506 11.6047 14.2754 -0.072706
320 1 20.2531 11.6723 15.6637 0.103326
321 1 20.2421 13.2005 16.159 -0.0374895
322 1 20.2903 13.2605 17.741 -0.0375831
323 1 21.5279 12.4778 18.2362 0.110633
325 2 21.5201 13.7412 14.1216 -0.0696757
326 1 21.5696 13.8466 15.5453 0.10775
327 1 21.6126 15.2922 16.059 -0.0308847
328 1 21.614 15.3902 17.5966 -0.0451591
329 1 22.8436 14.6673 18.2082 0.113433
331 2 22.9934 16.1323 14.0498 -0.0684427
332 1 22.9263 16.1147 15.5069 0.107708
333 1 22.8088 17.5961 16.0409 -0.0401032
335 1 24.133 16.7987 18.2131 0.111078
337 2 21.5096 9.50347 14.2594 -0.0726684
338 1 21.5502 9.50384 15.5965 0.112942
339 1 21.5591 10.9801 16.1166 -0.0367651
340 1 21.5559 11.0281 17.6791 -0.0415719
341 1 22.8463 10.2591 18.2749 0.113405
343 2 22.8431 11.575 14.1724 -0.0713814
344 1 22.8242 11.6755 15.5333 0.114316
345 1 22.8664 13.1275 16.0246 -0.0319902
346 1 22.7623 13.2073 17.6054 -0.0428793
347 1 24.013 12.4073 18.169 0.104812
349 2 24.224 13.8598 14.1269 -0.0700876
350 1 24.2228 13.8765 15.5131 0.114662
351 1 24.1146 15.2772 16.133 -0.0384372
352 1 24.2094 15.3191 17.6452 -0.0402332
361 2 24.0625 9.58026 14.1756 -0.0699568
362 1 24.1285 9.49072 15.6339 0.106485
363 1 24.1721 10.9803 16.1866 -0.0409307
364 1 24.1498 10.9148 17.7137 -0.0353529
21 1 25.402 8.72247 16.1733 -0.0328217
106 1 28.0432 13.2021 17.6231 -0.0435518
112 1 29.2861 15.4055 17.7975 -0.0317065
100 1 26.7804 10.9477 17.8044 -0.0296858
353 1 25.4316 14.6149 18.2537 0.113636
355 2 25.4185 16.2427 14.2569 -0.0736837
356 1 25.4425 16.1566 15.6531 0.100402
357 1 25.3787 17.6595 16.1252 -0.0354812
359 1 26.665 16.8953 18.2266 0.10561
365 1 25.397 10.1767 18.2547 0.108737
367 2 25.3895 11.6204 14.2444 -0.0729842
368 1 25.4545 11.5927 15.6324 0.106569
369 1 25.4109 13.1279 16.1013 -0.0339084
370 1 25.4227 13.0837 17.6415 -0.0359951
371 1 26.6789 12.4151 18.2119 0.107218
373 2 26.7019 13.9373 14.2174 -0.0706917
374 1 26.7116 13.8951 15.6483 0.101755
375 1 26.6694 15.3704 16.1496 -0.0307754
376 1 26.7557 15.3375 17.7353 -0.0382694
377 1 27.9744 14.6172 18.2454 0.108996
379 2 27.9831 16.1694 14.408 -0.0760724
380 1 28.0027 16.1222 15.7313 0.101951
381 1 27.9841 17.5869 16.2255 -0.0371538
383 1 29.1645 16.8996 18.3462 0.111282
6 2 2.40097 1.47654 19.7162 -0.0717185
12 2 3.76673 3.44775 19.6241 -0.073911
18 2 4.91392 5.74733 19.6911 -0.0711813
30 2 4.89799 1.22647 19.6666 -0.0715627
24 2 6.27781 7.9951 19.6096 -0.0725187
36 2 6.26209 3.56133 19.7082 -0.0700709
42 2 7.51256 5.79456 19.6376 -0.0723569
48 2 8.83585 8.0866 19.6459 -0.0713939
54 2 7.57911 1.3451 19.5853 -0.0735233
60 2 8.92631 3.55158 19.6829 -0.0703634
66 2 10.0823 5.83029 19.731 -0.0685374
72 2 11.4587 7.99948 19.6235 -0.0730212
78 2 10.0528 1.35044 19.5866 -0.0731421
84 2 11.4256 3.5122 19.6529 -0.0712552
90 2 12.7386 5.80768 19.6164 -0.0734219
96 2 13.9073 7.81307 19.6052 -0.0751228
198 2 12.6461 1.37172 19.5882 -0.0723217
204 2 14.0057 3.54843 19.705 -0.0688336
210 2 15.1668 5.72744 19.6538 -0.0729277
216 2 16.5236 7.90119 19.7911 -0.0692294
222 2 15.1731 1.2505 19.5946 -0.0726588
228 2 16.54 3.47816 19.6974 -0.0706556
234 2 17.7859 5.85184 19.6904 -0.0725009
246 2 17.696 1.48276 19.6899 -0.0719249
240 2 19.0293 7.92655 19.731 -0.070998
252 2 18.8731 3.60775 19.7504 -0.0705398
258 2 20.3404 5.76279 19.7642 -0.0701866
264 2 21.6415 8.03683 19.5575 -0.076419
270 2 20.2496 1.34962 19.7187 -0.0721765
276 2 21.6149 3.42278 19.7505 -0.0711177
282 2 22.8433 5.77526 19.7795 -0.0685988
288 2 24.0971 8.07892 19.6287 -0.0730516
102 2 7.59069 10.3468 19.601 -0.07234
108 2 8.84028 12.4247 19.5541 -0.0750189
114 2 10.0756 14.555 19.6305 -0.073743
120 2 11.4359 16.8759 19.7338 -0.0710392
126 2 10.0947 10.2258 19.6461 -0.0718463
132 2 11.3133 12.4691 19.6359 -0.0735281
138 2 12.4907 14.7432 19.748 -0.070316
144 2 13.9912 16.876 19.6538 -0.0734205
150 2 12.5776 10.1439 19.7258 -0.0705952
156 2 13.9225 12.3608 19.6409 -0.0743574
162 2 15.1657 14.6634 19.8083 -0.0687236
168 2 16.5423 17.0056 19.5909 -0.0748032
174 2 15.1432 10.1334 19.7713 -0.070007
180 2 16.4236 12.3709 19.6743 -0.074107
186 2 17.8334 14.5502 19.7478 -0.0706339
294 2 17.7984 10.1928 19.7267 -0.0714432
192 2 19.1624 16.7673 19.6258 -0.0724388
300 2 19.1156 12.4292 19.7179 -0.0709964
306 2 20.3627 14.707 19.6098 -0.0733143
312 2 21.6634 16.9145 19.5594 -0.0736187
318 2 20.3126 10.2864 19.7059 -0.0704465
324 2 21.6389 12.5222 19.6374 -0.0716529
330 2 22.8215 14.6741 19.5668 -0.0731953
336 2 24.185 16.7682 19.5964 -0.0718802
342 2 22.9101 10.3037 19.687 -0.0700494
348 2 23.9992 12.4268 19.5496 -0.0735666
354 2 25.3392 14.648 19.6334 -0.0706215
360 2 26.5635 16.9832 19.6576 -0.0708406
366 2 25.3191 10.2447 19.6824 -0.0692573
372 2 26.7431 12.5286 19.5542 -0.0737475
378 2 28.0711 14.5097 19.6494 -0.071432
384 2 29.1517 16.9374 19.6821 -0.0722202
ITEM: TIMESTEP
11000
ITEM: NUMBER OF ATOMS
384
ITEM: BOX BOUNDS xy xz yz pp pp pp
-1.3540988627929679e-01 3.0533739210829161e+01 1.0220330216610561e+01
-1.1373569014286415e-01 1.7588395515158059e+01 0.0000000000000000e+00
0.0000000000000000e+00 4.4198048819842896e+01 0.0000000000000000e+00
ITEM: ATOMS id type x y z q
1 2 0.963244 0.781228 14.2897 -0.0726475
2 1 1.06682 0.682513 15.6331 0.111292
5 1 2.44512 1.31851 18.281 0.110387
7 2 2.43296 2.8823 14.2343 -0.0719625
8 1 2.53085 2.83369 15.6677 0.102091
11 1 3.71234 3.50117 18.2184 0.105645
13 2 3.69102 5.05062 14.1388 -0.0702683
14 1 3.69133 5.03556 15.5454 0.112349
17 1 4.98939 5.7735 18.2037 0.108922
19 2 4.84236 7.17007 14.1799 -0.0709995
20 1 4.86137 7.22948 15.601 0.103614
25 2 3.73632 0.455042 14.2105 -0.0706858
26 1 3.6798 0.529803 15.5699 0.116232
27 1 3.74555 2.02913 16.1193 -0.0378214
28 1 3.66547 2.06394 17.7039 -0.0385152
29 1 5.00206 1.34705 18.2164 0.105634
31 2 4.93188 2.83745 14.1334 -0.0699641
32 1 4.98579 2.81269 15.5319 0.111701
33 1 4.99626 4.24833 16.1052 -0.0419923
34 1 4.90466 4.31265 17.7025 -0.0403776
9 1 2.44304 4.35482 16.1893 -0.0413465
15 1 3.5802 6.50213 16.151 -0.0407864
142 1 2.45799 -0.161584 17.7778 -0.0380946
10 1 2.34127 4.33501 17.7406 -0.0305089
141 1 2.3909 -0.126596 16.1623 -0.0368958
165 1 4.9399 -0.150334 16.1826 -0.0363821
23 1 6.14578 8.03318 18.192 0.105252
35 1 6.14264 3.56948 18.2611 0.112996
37 2 6.38112 4.85975 14.1087 -0.0691067
38 1 6.27491 4.92262 15.5804 0.104637
39 1 6.23159 6.48312 16.0779 -0.0254561
40 1 6.17382 6.55626 17.6042 -0.0446532
41 1 7.44311 5.85065 18.1691 0.104772
43 2 7.53722 7.25872 14.1344 -0.069087
44 1 7.50836 7.2255 15.5918 0.107237
45 1 7.54408 8.66522 16.2092 -0.0396061
47 1 8.75719 8.07858 18.3465 0.121226
49 2 6.14293 0.422656 14.2216 -0.0717812
50 1 6.30886 0.491356 15.5984 0.106797
51 1 6.28145 2.03646 16.0846 -0.0352225
52 1 6.24821 2.11233 17.6922 -0.0414216
53 1 7.49015 1.36794 18.2106 0.105173
55 2 7.55547 2.74337 14.1174 -0.0687501
56 1 7.52736 2.75164 15.5666 0.10823
57 1 7.54536 4.2926 16.1272 -0.0384371
58 1 7.4159 4.32892 17.6964 -0.0349639
59 1 8.69808 3.6126 18.2271 0.107804
61 2 8.82428 4.99443 14.3024 -0.075188
62 1 8.8161 5.02596 15.6208 0.108179
63 1 8.79298 6.49221 16.0739 -0.0382433
64 1 8.70154 6.55096 17.755 -0.0344051
65 1 9.98397 5.84125 18.2004 0.102136
67 2 10.1147 7.13723 14.2391 -0.0724645
68 1 10.0578 7.22687 15.5543 0.116519
71 1 11.2686 8.06146 18.2401 0.102061
73 2 8.9189 0.616067 14.1353 -0.0681709
74 1 8.85036 0.629115 15.5722 0.112293
75 1 8.80091 2.12774 16.143 -0.0393223
76 1 8.80264 2.10294 17.7047 -0.0360463
77 1 10.0802 1.48826 18.2966 0.109612
79 2 10.2256 2.96417 14.1889 -0.0697303
80 1 10.1231 2.88079 15.6464 0.108726
81 1 10.1349 4.32366 16.2204 -0.0427481
82 1 9.9458 4.34743 17.7181 -0.0286798
83 1 11.3763 3.64329 18.2892 0.108352
85 2 11.4852 4.9781 14.2182 -0.0706587
86 1 11.4399 5.02069 15.6025 0.115577
87 1 11.347 6.50977 16.1448 -0.0422277
88 1 11.3532 6.50745 17.7414 -0.0283982
193 2 11.3198 0.698534 14.1504 -0.0677208
194 1 11.3845 0.634624 15.6547 0.108722
195 1 11.3518 2.1361 16.2487 -0.0405713
196 1 11.3906 2.17357 17.8186 -0.0325513
190 1 7.53317 -0.0962447 17.7448 -0.0439327
46 1 7.5599 8.79059 17.7161 -0.0360703
70 1 10.0312 8.76484 17.7562 -0.0411518
189 1 7.57825 -0.196083 16.0548 -0.034722
89 1 12.6308 5.82638 18.2229 0.101328
91 2 12.6843 7.26623 14.2127 -0.0698466
92 1 12.6388 7.22514 15.6172 0.112202
95 1 13.9322 7.93827 18.2593 0.103927
197 1 12.6121 1.27752 18.3282 0.111274
199 2 12.5935 2.90492 14.2318 -0.070054
200 1 12.6867 2.87211 15.7125 0.105182
201 1 12.6823 4.33008 16.1887 -0.0423646
202 1 12.6519 4.27908 17.84 -0.0311051
203 1 13.9313 3.57348 18.3084 0.10936
205 2 13.9872 5.05765 14.2611 -0.0707448
206 1 13.9895 5.10096 15.6757 0.108632
207 1 13.9424 6.56576 16.0998 -0.0325973
208 1 14.0123 6.42147 17.7442 -0.0393221
209 1 15.2524 5.75535 18.3241 0.114035
211 2 15.3453 7.10098 14.2275 -0.0696714
212 1 15.3259 7.21436 15.6549 0.112642
213 1 15.1987 8.67862 16.2267 -0.0409916
215 1 16.5075 8.03264 18.3652 0.115038
217 2 13.8685 0.669668 14.1642 -0.0687154
218 1 13.9027 0.636442 15.5665 0.114705
219 1 13.9072 2.12373 16.1572 -0.0381709
220 1 13.8871 1.99858 17.7645 -0.0352402
221 1 15.1796 1.32459 18.2415 0.107248
223 2 15.0862 2.94516 14.3299 -0.0732815
224 1 15.1852 2.87263 15.6753 0.10816
225 1 15.2381 4.34145 16.2506 -0.0408029
226 1 15.2023 4.29129 17.7939 -0.0344102
227 1 16.4803 3.51277 18.2482 0.105033
229 2 16.5159 5.05273 14.3859 -0.0750462
230 1 16.4937 5.03967 15.733 0.107467
231 1 16.5282 6.50387 16.2296 -0.0426371
232 1 16.5091 6.49686 17.7988 -0.0350723
233 1 17.8464 5.85027 18.3337 0.109003
235 2 17.7732 7.17368 14.2665 -0.071818
236 1 17.8116 7.21231 15.6611 0.112763
237 1 17.6942 8.69062 16.2503 -0.0445977
241 2 16.4108 0.683835 14.2841 -0.072766
242 1 16.4416 0.662172 15.6385 0.10946
243 1 16.5018 2.09919 16.1182 -0.0301275
244 1 16.4804 2.04943 17.7198 -0.0437228
245 1 17.7071 1.35992 18.3259 0.116444
247 2 17.7616 2.82137 14.2169 -0.0696208
248 1 17.8643 2.80525 15.6231 0.113509
249 1 17.8099 4.24036 16.2078 -0.0401254
250 1 17.7171 4.26913 17.7806 -0.029565
358 1 15.1918 -0.127553 17.6976 -0.043805
382 1 17.7478 -0.095289 17.7702 -0.0352734
94 1 12.6519 8.71321 17.7931 -0.031583
214 1 15.2135 8.65319 17.8132 -0.033375
238 1 17.7776 8.76736 17.7719 -0.0330397
3 1 21.6512 2.14737 16.1956 -0.0365402
4 1 21.6362 2.08583 17.7612 -0.0346246
16 1 24.1654 6.55011 17.698 -0.0347648
239 1 19.0947 8.06847 18.2169 0.099121
251 1 19.0624 3.54432 18.3149 0.107677
253 2 18.9952 4.96182 14.2114 -0.0695075
254 1 19.0602 4.94709 15.6239 0.112922
255 1 19.0235 6.50425 16.2052 -0.0428785
256 1 19.1069 6.56875 17.8092 -0.0323606
257 1 20.4018 5.81461 18.3341 0.110868
259 2 20.1228 7.25321 14.2148 -0.070642
260 1 20.2248 7.26789 15.6472 0.10473
263 1 21.6259 8.04434 18.2055 0.108657
265 2 18.901 0.59511 14.3632 -0.0755493
266 1 18.9671 0.593774 15.6659 0.111197
267 1 19.1025 2.03468 16.1837 -0.0429214
268 1 18.9986 2.07684 17.777 -0.0374174
269 1 20.2983 1.36376 18.2984 0.105922
271 2 20.2649 2.72416 14.2815 -0.0725619
272 1 20.336 2.76297 15.6684 0.108464
273 1 20.3765 4.24995 16.2181 -0.0413032
274 1 20.2849 4.27685 17.8264 -0.0371949
275 1 21.5534 3.59383 18.3138 0.109493
277 2 21.682 5.05639 14.1781 -0.0697659
278 1 21.6048 5.04995 15.6125 0.111294
279 1 21.4893 6.51548 16.1713 -0.0381869
280 1 21.6383 6.54714 17.7281 -0.0395164
281 1 22.8636 5.80945 18.2341 0.105795
283 2 22.6526 7.34977 14.1848 -0.0709623
284 1 22.782 7.28063 15.5704 0.110091
287 1 24.1619 8.00498 18.2426 0.112813
118 1 20.2821 -0.106163 17.8179 -0.0383944
262 1 20.4226 8.86267 17.6271 -0.0443674
22 1 4.85525 8.79725 17.6808 -0.0431617
69 1 10.0854 8.68308 16.1927 -0.0391053
97 2 6.32035 9.42409 14.2825 -0.0738114
98 1 6.24252 9.4495 15.6447 0.103701
101 1 7.58863 10.2347 18.2718 0.111128
103 2 7.63177 11.6828 14.2256 -0.0711674
104 1 7.6416 11.7425 15.6465 0.106179
105 1 7.60064 13.2239 16.1542 -0.0368219
107 1 8.80402 12.3843 18.3137 0.115405
109 2 8.84546 13.8642 14.2225 -0.0708693
110 1 8.90791 13.9238 15.5611 0.117663
111 1 8.88082 15.3535 16.092 -0.0323474
113 1 10.0083 14.5968 18.3088 0.108464
115 2 10.1809 16.1459 14.3299 -0.0735696
116 1 10.2017 16.1624 15.7004 0.105254
117 1 10.0964 17.6168 16.144 -0.0360247
119 1 11.3607 16.8823 18.3516 0.110788
121 2 8.89222 9.43755 14.268 -0.0730458
122 1 8.79808 9.39364 15.6235 0.111157
123 1 8.78958 10.8763 16.1636 -0.0326074
124 1 8.87944 10.9379 17.7541 -0.0416214
125 1 10.1632 10.2382 18.3149 0.111128
127 2 10.0723 11.7111 14.3018 -0.0735068
128 1 10.1398 11.6572 15.649 0.110197
129 1 10.1362 13.079 16.1642 -0.0360966
130 1 10.0819 13.0748 17.7267 -0.0406019
131 1 11.3565 12.3889 18.2894 0.103812
133 2 11.3474 13.9418 14.321 -0.0731332
134 1 11.4026 13.9017 15.7152 0.10437
135 1 11.4052 15.3872 16.2417 -0.0389482
136 1 11.3581 15.383 17.8402 -0.0348899
145 2 11.4534 9.42956 14.285 -0.0726977
146 1 11.3941 9.42886 15.6889 0.106079
147 1 11.3388 10.8552 16.2161 -0.0398021
148 1 11.5005 10.8569 17.8071 -0.0341047
99 1 6.34794 10.9918 16.1573 -0.0308994
166 1 15.2669 17.5641 17.6927 -0.0381542
93 1 12.6962 8.68895 16.2039 -0.0411285
137 1 12.5793 14.6879 18.3452 0.109191
139 2 12.6434 16.1211 14.3276 -0.0733145
140 1 12.7015 16.1171 15.6962 0.105969
143 1 13.9652 16.8588 18.2534 0.104207
149 1 12.7772 10.1668 18.3274 0.108706
151 2 12.5759 11.6239 14.2946 -0.072629
152 1 12.6367 11.6614 15.6646 0.110753
153 1 12.6361 13.0715 16.2484 -0.0448175
154 1 12.6245 13.185 17.8328 -0.0285246
155 1 13.9268 12.4155 18.2708 0.103952
157 2 13.9065 13.8908 14.2386 -0.0704679
158 1 13.8873 13.8574 15.6297 0.112193
159 1 13.9798 15.375 16.2231 -0.0361725
160 1 13.9375 15.3269 17.7733 -0.0377211
161 1 15.1571 14.569 18.4004 0.120946
163 2 15.2356 16.0045 14.2285 -0.0705033
164 1 15.2307 16.0727 15.7257 0.100205
167 1 16.5158 16.8129 18.3277 0.114849
169 2 14.0229 9.32892 14.2829 -0.0721099
170 1 13.9179 9.40852 15.69 0.106254
171 1 13.8795 10.9696 16.1921 -0.0396514
172 1 14.1117 10.9798 17.7562 -0.0375753
173 1 15.2881 10.223 18.3062 0.110265
175 2 15.0852 11.6788 14.1674 -0.0687682
176 1 15.154 11.6455 15.5809 0.114244
177 1 15.1378 13.1034 16.131 -0.0340128
178 1 15.2033 13.2286 17.7312 -0.045542
179 1 16.4634 12.455 18.2624 0.106785
181 2 16.5239 13.879 14.2186 -0.0709043
182 1 16.4751 13.8711 15.6353 0.110307
183 1 16.557 15.2936 16.2372 -0.0379195
184 1 16.478 15.3956 17.7468 -0.0378816
185 1 17.7831 14.5935 18.3062 0.108804
187 2 17.7248 16.0748 14.2734 -0.0731338
188 1 17.7824 16.058 15.6315 0.108062
289 2 16.4801 9.4324 14.2452 -0.0715529
290 1 16.465 9.42436 15.6454 0.109726
291 1 16.4322 10.8893 16.1207 -0.0335285
292 1 16.5048 10.9731 17.7278 -0.0424665
293 1 17.7688 10.269 18.3116 0.111844
295 2 17.7034 11.6814 14.2578 -0.0731951
296 1 17.7639 11.6449 15.5943 0.108766
297 1 17.7028 13.1121 16.1814 -0.0443119
298 1 17.7936 13.1121 17.7816 -0.0347392
310 1 20.2812 17.6702 17.8071 -0.0332068
334 1 22.8242 17.5468 17.7569 -0.0394062
261 1 20.3154 8.78262 16.0722 -0.0270538
285 1 22.9463 8.76458 16.0997 -0.0269119
286 1 22.8315 8.75202 17.5814 -0.0438324
191 1 19.0017 16.9253 18.3217 0.112196
299 1 19.0922 12.4341 18.2983 0.113978
301 2 18.9564 13.8877 14.1614 -0.0694746
302 1 18.9845 13.8096 15.566 0.113886
303 1 19.0704 15.2396 16.1772 -0.0372507
304 1 18.9923 15.3759 17.7212 -0.0383125
305 1 20.264 14.6399 18.2476 0.10683
307 2 20.2599 16.1344 14.2485 -0.0717866
308 1 20.2695 16.1148 15.6498 0.106028
309 1 20.2895 17.6747 16.2464 -0.0445061
311 1 21.5051 16.9067 18.3027 0.109798
313 2 18.882 9.42016 14.2482 -0.0723954
314 1 18.9706 9.4297 15.6178 0.107492
315 1 19.0361 10.8884 16.0476 -0.0350306
316 1 19.0503 11.0223 17.8073 -0.0423705
317 1 20.3177 10.2813 18.2947 0.11754
319 2 20.2614 11.6396 14.217 -0.071545
320 1 20.2747 11.665 15.5797 0.109089
321 1 20.3128 13.1778 16.0837 -0.029739
322 1 20.3755 13.1528 17.6306 -0.0454209
323 1 21.6212 12.4544 18.2135 0.108505
325 2 21.5711 14.0234 14.2477 -0.0720016
326 1 21.5689 13.955 15.673 0.102641
327 1 21.5636 15.4367 16.1582 -0.0357317
328 1 21.5658 15.4012 17.7559 -0.0330353
329 1 22.8076 14.6702 18.1648 0.101225
331 2 22.858 16.1183 14.2582 -0.0726069
332 1 22.8499 16.1753 15.6377 0.105201
333 1 22.8654 17.7089 16.1376 -0.0424288
335 1 24.1674 16.8836 18.2383 0.110085
337 2 21.6015 9.53957 14.2863 -0.0742067
338 1 21.5878 9.49811 15.6314 0.103125
339 1 21.5595 10.9508 16.1183 -0.0302017
340 1 21.5879 10.9898 17.6725 -0.0426421
341 1 22.872 10.2637 18.2761 0.115799
343 2 22.9956 11.6975 14.2308 -0.0721302
344 1 22.9244 11.6438 15.6429 0.106018
345 1 22.8359 13.1146 16.1547 -0.0382021
346 1 22.9466 13.1539 17.7447 -0.030853
347 1 24.2079 12.4332 18.2456 0.110779
349 2 23.9757 13.9338 14.2533 -0.0731484
350 1 24.0792 13.8411 15.5544 0.114914
351 1 24.079 15.3601 16.0714 -0.0311123
352 1 24.0792 15.3913 17.6531 -0.038082
361 2 24.1509 9.50681 14.2252 -0.0724631
362 1 24.2095 9.54364 15.5797 0.109863
363 1 24.2453 11.0544 16.2248 -0.044406
364 1 24.156 10.9403 17.7805 -0.036172
21 1 25.4437 8.6922 16.1336 -0.0346385
106 1 28.0049 13.1256 17.697 -0.039149
112 1 29.2168 15.2741 17.7927 -0.0433192
100 1 26.7531 10.883 17.7283 -0.0374659
353 1 25.366 14.6475 18.1973 0.107371
355 2 25.4333 16.1886 14.2047 -0.0706331
356 1 25.3693 16.1366 15.6037 0.108957
357 1 25.4395 17.5505 16.0883 -0.0348313
359 1 26.7007 16.8697 18.2647 0.111021
365 1 25.4298 10.2615 18.3169 0.119066
367 2 25.4368 11.7594 14.2175 -0.0715505
368 1 25.4993 11.7392 15.6352 0.105578
369 1 25.5102 13.2583 16.1596 -0.037002
370 1 25.4685 13.187 17.6893 -0.0363685
371 1 26.7252 12.4405 18.1781 0.10186
373 2 26.7243 13.8741 14.2034 -0.0704132
374 1 26.7465 13.9572 15.6348 0.106803
375 1 26.7055 15.4287 16.1758 -0.0367708
376 1 26.6639 15.4068 17.7936 -0.0315729
377 1 27.9406 14.6264 18.2844 0.113135
379 2 28.053 16.2072 14.2915 -0.0728571
380 1 28.0551 16.0938 15.6916 0.103376
381 1 27.9468 17.5554 16.2331 -0.03764
383 1 29.2846 16.7889 18.3138 0.109152
6 2 2.49641 1.37602 19.6296 -0.0734858
12 2 3.73788 3.47536 19.5506 -0.0745278
18 2 5.02335 5.81034 19.6887 -0.068315
30 2 4.9633 1.39128 19.659 -0.0710441
24 2 6.14262 7.94527 19.5579 -0.0740772
36 2 6.22429 3.60071 19.729 -0.0670266
42 2 7.46369 5.84742 19.5665 -0.0728413
48 2 8.68504 8.01118 19.6541 -0.0718386
54 2 7.54051 1.39833 19.6107 -0.0727486
60 2 8.78118 3.5894 19.6464 -0.0706592
66 2 10.0334 5.84031 19.6225 -0.0716963
72 2 11.2018 8.02829 19.6674 -0.0713505
78 2 10.0215 1.45713 19.6453 -0.0728512
84 2 11.236 3.69548 19.6298 -0.072552
90 2 12.6447 5.92898 19.6557 -0.0714058
96 2 13.937 7.94674 19.6533 -0.0725704
198 2 12.6628 1.36115 19.6749 -0.0718783
204 2 13.9522 3.59104 19.6716 -0.0717419
210 2 15.1812 5.78986 19.7237 -0.0703945
216 2 16.5644 8.07422 19.6832 -0.0724554
222 2 15.3184 1.28705 19.6283 -0.0733352
228 2 16.4438 3.52658 19.6232 -0.0741025
234 2 17.7328 5.81166 19.7185 -0.0709975
246 2 17.6386 1.36369 19.6844 -0.0719654
240 2 19.0117 8.13412 19.6284 -0.0732603
252 2 18.9826 3.59767 19.671 -0.0729813
258 2 20.4043 6.01021 19.6986 -0.0711185
264 2 21.7305 8.11761 19.5673 -0.0745156
270 2 20.282 1.46772 19.6997 -0.0717948
276 2 21.5183 3.58146 19.6979 -0.0712335
282 2 22.9425 5.85816 19.6519 -0.0709931
288 2 24.1416 8.12567 19.6615 -0.0704733
102 2 7.50295 10.1737 19.6074 -0.0737329
108 2 8.74531 12.5028 19.6642 -0.0726035
114 2 10.0183 14.5702 19.719 -0.0710919