LAMMPS (29 Aug 2024 - Update 2)
  using 20 OpenMP thread(s) per MPI task
variable T equal 973.15       # Target temperature in K
variable dt equal 0.5      # Timestep in fs
variable steps_per_restart equal 1000000
variable total_steps equal 5000000

units real
atom_style charge
boundary p p f  # periodic in x and y, fixed in z

# Read graphene structure (carbon only)
read_data graphene_mini.data
Reading data file ...
  orthogonal box = (0.0672 0.06 -50) to (44.28 42.6 50)
  1 by 1 by 1 MPI processor grid
  reading atoms ...
  1440 atoms
  read_data CPU = 0.008 seconds

# ReaxFF potential
pair_style reaxff NULL safezone 3.0 mincap 150
pair_coeff * * ffield.reax.FC.txt C F
Reading potential file ffield.reax.FC.txt with DATE: 2013-06-28
WARNING: Changed valency_val to valency_boc for X (src/REAXFF/reaxff_ffield.cpp:300)

# Define groups
group graphene type 1
1440 atoms in group graphene

# Charge equilibration
fix qeq all qeq/reaxff 100 0.0 10.0 1.0e-6 reaxff

# Prevent atoms from flying out of z bounds
fix wall all wall/reflect zlo EDGE zhi EDGE

# Temperature monitoring
compute tgraphene graphene temp

# ----------------------------
# Relaxation Phase
# ----------------------------
fix boxrelax all box/relax x 0.0 y 0.0 vmax 0.001
minimize 1.0e-6 1.0e-9 1000 10000

CITE-CITE-CITE-CITE-CITE-CITE-CITE-CITE-CITE-CITE-CITE-CITE-CITE

Your simulation uses code contributions which should be cited:

- pair reaxff command: doi:10.1016/j.parco.2011.08.005

@Article{Aktulga12,
 author = {H. M. Aktulga and J. C. Fogarty and S. A. Pandit and A. Y. Grama},
 title = {Parallel Reactive Molecular Dynamics: {N}umerical Methods and Algorithmic Techniques},
 journal = {Parallel Computing},
 year =    2012,
 volume =  38,
 number =  {4--5},
 pages =   {245--259}
}

- fix qeq/reaxff command: doi:10.1016/j.parco.2011.08.005

@Article{Aktulga12,
 author = {H. M. Aktulga and J. C. Fogarty and S. A. Pandit and A. Y. Grama},
 title = {Parallel Reactive Molecular Dynamics: {N}umerical Methods and Algorithmic Techniques},
 journal = {Parallel Computing},
 year =    2012,
 volume =  38,
 pages =   {245--259}
}

CITE-CITE-CITE-CITE-CITE-CITE-CITE-CITE-CITE-CITE-CITE-CITE-CITE

Neighbor list info ...
  update: every = 1 steps, delay = 0 steps, check = yes
  max neighbors/atom: 2000, page size: 100000
  master list distance cutoff = 12
  ghost atom cutoff = 12
  binsize = 6, bins = 8 8 17
  2 neighbor lists, perpetual/occasional/extra = 2 0 0
  (1) pair reaxff, perpetual
      attributes: half, newton off, ghost
      pair build: half/bin/ghost/newtoff
      stencil: full/ghost/bin/3d
      bin: standard
  (2) fix qeq/reaxff, perpetual, copy from (1)
      attributes: half, newton off
      pair build: copy
      stencil: none
      bin: none
WARNING: Energy due to 3 extra global DOFs will be included in minimizer energies
 (src/min.cpp:219)
Per MPI rank memory allocation (min/avg/max) = 161.1 | 161.1 | 161.1 Mbytes
   Step          Temp          E_pair         E_mol          TotEng         Press          Volume    
         0   0             -254657.85      0             -254657.85      97058.358      188081.25    
        13   0             -261891.62      0             -261891.62     -377.55532      192093.58    
Loop time of 1.60799 on 20 procs for 13 steps with 1440 atoms

809.9% CPU use with 1 MPI tasks x 20 OpenMP threads

Minimization stats:
  Stopping criterion = energy tolerance
  Energy initial, next-to-last, final = 
     -254657.847095546  -261891.586268926   -261891.62225262
  Force two-norm initial, final = 566410.4 660.05649
  Force max component initial, final = 400581.5 499.06258
  Final line search alpha, max atom move = 5.4496116e-07 0.00027196972
  Iterations, force evaluations = 13 16

MPI task timing breakdown:
Section |  min time  |  avg time  |  max time  |%varavg| %total
---------------------------------------------------------------
Pair    | 0.88102    | 0.88102    | 0.88102    |   0.0 | 54.79
Neigh   | 0          | 0          | 0          |   0.0 |  0.00
Comm    | 0.00017691 | 0.00017691 | 0.00017691 |   0.0 |  0.01
Output  | 0          | 0          | 0          |   0.0 |  0.00
Modify  | 1.0102e-05 | 1.0102e-05 | 1.0102e-05 |   0.0 |  0.00
Other   |            | 0.7268     |            |       | 45.20

Nlocal:           1440 ave        1440 max        1440 min
Histogram: 1 0 0 0 0 0 0 0 0 0
Nghost:           1997 ave        1997 max        1997 min
Histogram: 1 0 0 0 0 0 0 0 0 0
Neighs:         287084 ave      287084 max      287084 min
Histogram: 1 0 0 0 0 0 0 0 0 0

Total # of neighbors = 287084
Ave neighs/atom = 199.36389
Neighbor list builds = 0
Dangerous builds = 0
unfix boxrelax

# Add F atoms
region above_graphene block 1 43 1 41 8 49 units box
region below_graphene block 1 43 1 41 -49 -8 units box
create_atoms 2 random 1440 12345 above_graphene overlap 1.5
Created 1440 atoms
  using lattice units in orthogonal box = (-0.16726735 -0.16576151 -50) to (44.514467 42.825762 50)
  create_atoms CPU = 0.032 seconds
create_atoms 2 random 1440 67890 below_graphene overlap 1.5
Created 1440 atoms
  using lattice units in orthogonal box = (-0.16726735 -0.16576151 -50) to (44.514467 42.825762 50)
  create_atoms CPU = 0.065 seconds
group gas type 2
2880 atoms in group gas

compute tgas gas temp

velocity all create ${T} 4928459 mom yes rot yes dist gaussian
velocity all create 973.15 4928459 mom yes rot yes dist gaussian

# Soft start: Langevin thermostat + NVE
fix pre_relax all nve
fix temp_relax all langevin ${T} ${T} 100.0 123456
fix temp_relax all langevin 973.15 ${T} 100.0 123456
fix temp_relax all langevin 973.15 973.15 100.0 123456
thermo 50
timestep ${dt}
timestep 0.5
run 3000
Per MPI rank memory allocation (min/avg/max) = 307.8 | 307.8 | 307.8 Mbytes
   Step          Temp          E_pair         E_mol          TotEng         Press     
        13   973.15        -248215.24      0             -235686.79      3478.6202    
        50   1831.0152     -261144.81      0             -237572.1       22797.101    
       100   1733.4237     -265128.21      0             -242811.9       18895.509    
       150   1501.2899     -266615.96      0             -247288.18      16885.997    
       200   1364.6441     -267756.35      0             -250187.76      16201.691    
       250   1239.3834     -268495.89      0             -252539.92      16777.603    
       300   1176.4503     -269133.48      0             -253987.72      14737.023    
       350   1118.9229     -269532.94      0             -255127.79      14066.094    
       400   1061.9791     -269705.63      0             -256033.58      12572.137    
       450   1037.8477     -269992.49      0             -256631.12      13266.391    
       500   1036.1047     -270197.68      0             -256858.75      13045.82     
       550   1016.7029     -270429.92      0             -257340.77      11815.349    
       600   984.13065     -270461.93      0             -257792.12      10538.955    
       650   985.76314     -270690.9       0             -258000.07      10529.89     
       700   999.95331     -270927.61      0             -258054.09      10322.711    
       750   1010.7144     -270916.14      0             -257904.08      10313.964    
       800   1005.7824     -270937.84      0             -257989.27      9181.776     
       850   979.40375     -270915.05      0             -258306.09      8786.2364    
       900   978.90696     -271122.87      0             -258520.3       9894.0604    
       950   966.26418     -271135.89      0             -258696.09      9472.2927    
      1000   981.55192     -271229.6       0             -258592.98      9241.7562    
      1050   970.7608      -271340.55      0             -258842.86      9114.6295    
      1100   982.53737     -271466.33      0             -258817.03      9103.7343    
      1150   949.85299     -271344.39      0             -259115.87      8752.4809    
      1200   975.53362     -271701.17      0             -259142.03      7979.9941    
      1250   990.18981     -271678.65      0             -258930.83      6377.1696    
      1300   982.84498     -271578.88      0             -258925.62      6665.4961    
      1350   983.18925     -271674.9       0             -259017.21      6197.7484    
      1400   995.95263     -271791.46      0             -258969.45      6865.9426    
      1450   994.58899     -272117.73      0             -259313.27      6843.902     
      1500   988.00448     -272194.82      0             -259475.13      6759.7402    
      1550   991.9848      -272219.88      0             -259448.95      7173.5181    
      1600   1008.4642     -272358.65      0             -259375.57      6347.5883    
      1650   1002.4238     -272526.32      0             -259621         6957.2274    
      1700   986.7429      -272366.4       0             -259662.95      6498.9578    
      1750   985.90107     -272516.93      0             -259824.32      6422.055     
      1800   984.31431     -272525.03      0             -259852.85      6499.1698    
      1850   980.88298     -272742.73      0             -260114.72      6088.4242    
      1900   987.62142     -272900.36      0             -260185.6       6831.3328    
      1950   976.56209     -272941.79      0             -260369.42      6756.9819    
      2000   982.6835      -273036.53      0             -260385.35      6327.4471    
      2050   978.04381     -272993.79      0             -260402.33      6744.0377    
      2100   979.03792     -273072.6       0             -260468.35      5490.0738    
      2150   979.15228     -273062.5       0             -260456.78      6420.8359    
      2200   987.37804     -272900.24      0             -260188.61      4439.8097    
      2250   1005.2167     -273111.41      0             -260170.13      5820.9445    
      2300   983.71862     -273066.19      0             -260401.68      4583.3885    
      2350   1000.8562     -273397.11      0             -260511.97      5295.4458    
      2400   980.3963      -273377.37      0             -260755.63      5714.8615    
      2450   971.1698      -273430.55      0             -260927.6       5679.4147    
      2500   990.69774     -273597.23      0             -260842.87      5136.9243    
      2550   967.43357     -273645.57      0             -261190.72      5615.3016    
      2600   981.3802      -273686.62      0             -261052.21      4423.4955    
      2650   989.8121      -273744.66      0             -261001.7       6262.8109    
      2700   983.77022     -273677.17      0             -261011.99      5089.1505    
      2750   990.34264     -273696.14      0             -260946.35      5565.3257    
      2800   971.04167     -273567.17      0             -261065.87      3078.6081    
      2850   976.41869     -273827.89      0             -261257.36      4434.2228    
      2900   990.48056     -274048.2       0             -261296.64      3031.4627    
      2950   981.38037     -274187.27      0             -261552.86      3568.7655    
      3000   995.30074     -274276.71      0             -261463.09      4201.7643    
      3013   981.76766     -274289.99      0             -261650.6       3524.712     
Loop time of 247.788 on 20 procs for 3000 steps with 4320 atoms

Performance: 0.523 ns/day, 45.887 hours/ns, 12.107 timesteps/s, 52.303 katom-step/s
105.6% CPU use with 1 MPI tasks x 20 OpenMP threads

MPI task timing breakdown:
Section |  min time  |  avg time  |  max time  |%varavg| %total
---------------------------------------------------------------
Pair    | 241.64     | 241.64     | 241.64     |   0.0 | 97.52
Neigh   | 0.91746    | 0.91746    | 0.91746    |   0.0 |  0.37
Comm    | 0.085087   | 0.085087   | 0.085087   |   0.0 |  0.03
Output  | 0.0022492  | 0.0022492  | 0.0022492  |   0.0 |  0.00
Modify  | 4.1989     | 4.1989     | 4.1989     |   0.0 |  1.69
Other   |            | 0.9435     |            |       |  0.38

Nlocal:           4320 ave        4320 max        4320 min
Histogram: 1 0 0 0 0 0 0 0 0 0
Nghost:           5741 ave        5741 max        5741 min
Histogram: 1 0 0 0 0 0 0 0 0 0
Neighs:         542455 ave      542455 max      542455 min
Histogram: 1 0 0 0 0 0 0 0 0 0

Total # of neighbors = 542455
Ave neighs/atom = 125.56829
Neighbor list builds = 41
Dangerous builds = 0
unfix pre_relax
unfix temp_relax

# ----------------------------
# Main Simulation Phase
# ----------------------------
fix nvt_sim all nvt temp ${T} ${T} 50
fix nvt_sim all nvt temp 973.15 ${T} 50
fix nvt_sim all nvt temp 973.15 973.15 50

# ReaxFF bond info
fix reax_bonds all reaxff/bonds 100 bonds.reax

# Restart file every 1 million timesteps
restart ${steps_per_restart} restart.*.bin
restart 1000000 restart.*.bin

# Dump less frequently to reduce file size
dump mydmp all custom 10000 dump.lammpstrj id type x y z q
thermo 1000

run ${total_steps}
run 5000000
Per MPI rank memory allocation (min/avg/max) = 314.4 | 314.4 | 314.4 Mbytes
   Step          Temp          E_pair         E_mol          TotEng         Press     
      3013   981.76766     -274289.99      0             -261650.6       3524.712     
      4000   965.00408     -275519.62      0             -263096.05      1361.8034    
      5000   965.02059     -277334.82      0             -264911.03      1500.5776    
      6000   987.71931     -279623.93      0             -266907.92      3450.5597    
      7000   967.31635     -281197.47      0             -268744.13      111.92263    
      8000   993.20661     -282045.42      0             -269258.76      58.701299    
      9000   948.57873     -282530.19      0             -270318.07      7.2093081    
     10000   971.78179     -283168.7       0             -270657.86     -1620.9477    
     11000   978.13051     -283753.54      0             -271160.97     -124.83175    
     12000   955.68289     -284186.35      0             -271882.77     -2725.0059    
     13000   992.35723     -284467.54      0             -271691.82     -2593.507     
     14000   969.96316     -284530.67      0             -272043.25     -3005.2978    
     15000   963.662       -284934.9       0             -272528.6      -1219.866     
     16000   982.52553     -285586.22      0             -272937.07     -3121.7485    
     17000   980.96955     -285343.88      0             -272714.77     -120.55819    
     18000   986.94336     -285739.67      0             -273033.65     -2595.8547    
     19000   974.34679     -285864.36      0             -273320.5      -5010.1678    
     20000   982.48952     -286013.85      0             -273365.16     -2784.7888    
     21000   966.11449     -285930.64      0             -273492.77     -637.67954    
     22000   954.58988     -286031.32      0             -273741.81     -5651.4449    
     23000   963.81464     -286224.05      0             -273815.78     -2909.1833    
     24000   970.50737     -286330.38      0             -273835.95     -1450.2614    
     25000   986.98028     -286344.1       0             -273637.6      -5440.0981    
     26000   997.19775     -286673.9       0             -273835.86     -2207.0749    
     27000   997.61476     -286655.68      0             -273812.27     -4887.6631    
     28000   975.6403      -286714.59      0             -274154.08     -5466.4861    
     29000   954.10984     -286853.01      0             -274569.68     -3372.4514    
     30000   969.46307     -286980.02      0             -274499.04     -2788.2228    
     31000   988.89921     -286879.82      0             -274148.62     -1654.8929    
     32000   982.2432      -287375.86      0             -274730.34     -2142.0108    
     33000   944.51168     -287330.01      0             -275170.25     -2283.2808    
     34000   973.7546      -287512.16      0             -274975.92     -1863.5726    
     35000   993.05885     -287592.79      0             -274808.04      65.901079    
     36000   966.53693     -287583.43      0             -275140.12     -3303.3078    
     37000   964.46674     -288008.22      0             -275591.56     -2784.1989    
     38000   989.3451      -287889.73      0             -275152.79     -5256.5626    
     39000   971.05945     -287735.02      0             -275233.49     -3089.7863    
     40000   978.64402     -288026.31      0             -275427.13     -2817.2253    
     41000   959.18968     -288149.16      0             -275800.44     -3448.127     
     42000   968.36706     -288124.12      0             -275657.24     -1914.7009    
     43000   970.85343     -288109.05      0             -275610.16     -1474.829     
     44000   990.09421     -288570.42      0             -275823.83     -3497.8965    
     45000   955.73766     -288514.51      0             -276210.23     -131.43839    
     46000   961.41652     -288817.74      0             -276440.35     -3111.5406    
     47000   977.96053     -288837.55      0             -276247.17     -4241.6175    
     48000   954.7783      -288894.88      0             -276602.95     -3026.385     
     49000   966.78762     -289006.06      0             -276559.52     -4574.7013    
     50000   970.34167     -288911.33      0             -276419.04     -3665.6686    
     51000   961.36931     -289093.91      0             -276717.13     -3035.3452    
     52000   996.07937     -289040.19      0             -276216.55     -1288.7043    
     53000   963.11782     -288987.79      0             -276588.5      -6103.2933    
     54000   954.00767     -289030.79      0             -276748.78     -4522.3409    
     55000   964.67911     -289138.98      0             -276719.58     -6573.1746    
     56000   968.06488     -289548.5       0             -277085.51     -3662.4627    
     57000   964.16257     -289536.9       0             -277124.16     -4278.9248    
     58000   966.12748     -289596.46      0             -277158.42     -3399.4181    
     59000   968.47385     -289741.51      0             -277273.26     -5729.4575    
     60000   976.02838     -289889.95      0             -277324.45     -3852.4065    
     61000   973.67628     -289654.8       0             -277119.58     -4644.8168    
     62000   969.48923     -289586.95      0             -277105.63     -1527.7471    
     63000   974.00558     -289904.67      0             -277365.21     -3307.1357    
     64000   972.67465     -289854.44      0             -277332.11     -3788.1056    
     65000   1002.2863     -289776.77      0             -276873.22     -3992.2696    
     66000   977.91625     -290114.28      0             -277524.47     -2575.063     
     67000   965.63002     -290111.91      0             -277680.28     -2156.2403    
     68000   957.50276     -289973.88      0             -277646.87     -2522.1679    
     69000   943.47131     -290019.81      0             -277873.45     -2099.9489    
     70000   965.8995      -290090.15      0             -277655.04     -4840.1516    
     71000   971.97804     -290106.57      0             -277593.21     -5673.4881    
     72000   975.69269     -290685.16      0             -278123.98     -3172.7417    
     73000   970.07931     -290443.44      0             -277954.53     -3447.6327    
     74000   959.69157     -290539.71      0             -278184.53     -543.08006    
     75000   982.06947     -290554.98      0             -277911.7      -7086.4087    
     76000   992.15972     -290814.61      0             -278041.43     -4198.0701    
     77000   993.50228     -290419.76      0             -277629.29     -3881.8703    
     78000   987.40592     -290773.6       0             -278061.62     -2934.6145    
     79000   974.62967     -290570.38      0             -278022.88     -3496.0322    
     80000   957.66264     -290696.04      0             -278366.98     -2718.8498    
     81000   975.6548      -290983.79      0             -278423.09     -568.07129    
     82000   961.27028     -290861.2       0             -278485.69     -1283.7362    
     83000   970.44553     -291133.77      0             -278640.14     -2605.7894    
     84000   956.11641     -291091.81      0             -278782.66     -5721.9834    
     85000   968.36091     -291199.29      0             -278732.5      -2372.6163    
     86000   962.79774     -291311.2       0             -278916.03     -2624.3635    
     87000   953.75716     -291217.29      0             -278938.51     -4957.9815    
     88000   971.72056     -291324.78      0             -278814.74     -3787.2967    
     89000   971.08184     -291360.67      0             -278858.85     -2998.5905    
     90000   980.69254     -291365.34      0             -278739.79     -3113.4748    
     91000   980.60683     -291559.38      0             -278934.93     -4859.3258    
     92000   973.98825     -291525.43      0             -278986.19     -3509.3113    
     93000   981.23446     -291476.99      0             -278844.46     -14.974725    
     94000   974.56038     -291608.87      0             -279062.26     -1708.4808    
     95000   986.99176     -291694.23      0             -278987.58     -5124.9262    
     96000   969.86804     -291659.41      0             -279173.21     -3226.0461    
     97000   969.47269     -291844.36      0             -279363.25     -6149.8214    
     98000   968.73666     -291625.42      0             -279153.79     -4339.8504    
     99000   974.05572     -291638.55      0             -279098.44     -2788.2966    
    100000   991.09206     -292069.71      0             -279310.27     -1216.9529    
    101000   977.57267     -292164.6       0             -279579.22     -2565.7047    
    102000   983.03543     -292016.98      0             -279361.27     -3443.7379    
    103000   957.56417     -292138.74      0             -279810.95     -882.87238    
    104000   970.59024     -292273.75      0             -279778.26     -5979.845     
    105000   1002.5654     -292273.3       0             -279366.15     -3097.4265    
    106000   970.16804     -292339.63      0             -279849.57     -2599.1885    
    107000   999.14821     -292546.23      0             -279683.08     -2889.6863    
    108000   952.23566     -292315.91      0             -280056.72     -4027.8059    
    109000   973.46005     -292392.25      0             -279859.81     -3816.8252    
    110000   964.21867     -292423.77      0             -280010.31     -5362.6609    
    111000   973.7         -292477.64      0             -279942.11     -1304.0796    
    112000   971.13251     -292419.13      0             -279916.65     -2694.3513    
    113000   963.87313     -292408.11      0             -279999.09     -4694.0379    
    114000   978.6983      -292497.36      0             -279897.48     -6163.8937    
    115000   994.89897     -292641.26      0             -279832.81     -1991.8223    
    116000   981.61962     -292793.86      0             -280156.37     -1959.3603    
    117000   977.48651     -292919.55      0             -280335.27     -1455.3251    
    118000   952.22707     -292808.13      0             -280549.04     -3039.4329    
    119000   965.00997     -292824.43      0             -280400.78     -6247.3958    
    120000   952.08088     -292812.54      0             -280555.33     -5100.5546    
    121000   965.09538     -292717.33      0             -280292.58     -4502.4572    
    122000   958.32088     -293093.97      0             -280756.43     -4442.548     
    123000   972.89881     -293127.39      0             -280602.17     -2578.8833    
    124000   976.57003     -293100.56      0             -280528.08     -4476.6255    
    125000   984.69432     -293212.13      0             -280535.05     -2296.6361    
    126000   961.33409     -293224.55      0             -280848.22     -4823.2784    
    127000   966.04614     -293248.27      0             -280811.27     -2443.0356    
    128000   969.80051     -293168.43      0             -280683.1      -3759.7516    
    129000   972.46067     -293577.01      0             -281057.44     -4442.2528    
    130000   969.72963     -293287.21      0             -280802.8      -4002.5819    
    131000   972.38719     -293202.82      0             -280684.19     -1942.1396    
    132000   977.91472     -293285.07      0             -280695.28     -5566.6851    
    133000   995.85828     -293358.81      0             -280538.01     -2539.6549    
    134000   958.38587     -293383.99      0             -281045.62     -1895.2591    
    135000   955.23579     -293632.91      0             -281335.09     -2478.8417    
    136000   981.35411     -293416.71      0             -280782.64     -716.79048    
    137000   985.05403     -293565.29      0             -280883.59     -4746.1008    
    138000   1008.5763     -293639.75      0             -280655.22     -3655.5623    
    139000   1006.6686     -293833.58      0             -280873.61     -1926.607     
    140000   976.14807     -293692.66      0             -281125.61     -4429.9888    
    141000   950.9936      -293633.95      0             -281390.74     -129.99066    
    142000   950.53134     -293770.13      0             -281532.87     -3595.6861    
    143000   970.25268     -293949.82      0             -281458.67     -3003.7683    
    144000   975.10629     -293906.46      0             -281352.82     -4536.6119    
    145000   966.70346     -293944.58      0             -281499.13     -1862.9213    
    146000   955.86483     -293735.4       0             -281429.48     -4148.4788    
    147000   949.75324     -293977.38      0             -281750.15     -2972.4914    
    148000   967.58383     -294022.26      0             -281565.47     -4648.2818    
    149000   963.3695      -293903.7       0             -281501.17     -3557.5098    
    150000   986.6493      -294039.76      0             -281337.52      23.144742    
    151000   986.40941     -294037.45      0             -281338.3      -4085.4534    
    152000   952.81491     -294193.21      0             -281926.56     -2901.797     
    153000   982.64723     -294401.58      0             -281750.86     -4824.3502    
    154000   949.90766     -294184.73      0             -281955.51     -5727.0078    
    155000   968.72553     -294187.5       0             -281716.01     -3124.5031    
    156000   962.26034     -294201.38      0             -281813.13     -4739.9485    
    157000   967.69083     -294258.21      0             -281800.04     -5720.4186    
    158000   975.20384     -294311.93      0             -281757.04     -4160.9375    
    159000   975.42361     -294315.1       0             -281757.38     -4488.6821    
    160000   969.10384     -294352.82      0             -281876.46     -3922.5637    
    161000   1000.2432     -294440.04      0             -281562.79     -6862.2529    
    162000   990.01168     -294499.72      0             -281754.19     -3635.0676    
    163000   1001.6167     -294337.03      0             -281442.1      -2623.0326    
    164000   978.53783     -294267.68      0             -281669.87     -2238.7753    
    165000   976.05559     -294448.6       0             -281882.74     -3137.0455    
    166000   956.60538     -294439.62      0             -282124.17     -4128.5129    
    167000   957.4343      -294424.2       0             -282098.07     -2443.0848    
    168000   965.60464     -294600.81      0             -282169.5      -5324.0262    
    169000   981.03127     -294480.77      0             -281850.86     -5371.7186    
    170000   973.07041     -294584.15      0             -282056.72     -3221.5019    
    171000   975.03131     -294599.99      0             -282047.32     -1744.8596    
    172000   982.92178     -294610.02      0             -281955.77     -2593.6301    
    173000   967.01846     -294609.28      0             -282159.77     -5039.7057    
    174000   951.24391     -294697.22      0             -282450.79     -4544.7923    
    175000   966.38158     -294633.9       0             -282192.59     -2395.8042    
    176000   968.96777     -294592.69      0             -282118.09     -5010.0522    
    177000   960.08084     -294815.33      0             -282455.14     -2036.2406    
    178000   964.3378      -294872.61      0             -282457.61     -5822.4571    
    179000   961.81256     -294817.01      0             -282434.52     -2414.1881    
    180000   958.71644     -294962.28      0             -282619.65     -4875.0212    
    181000   985.17029     -294931.74      0             -282248.54     -4040.596     
    182000   974.54313     -294834.57      0             -282288.18     -2241.1368    
    183000   985.73483     -295105.05      0             -282414.58     -4762.29      
    184000   970.81429     -294978.58      0             -282480.2      -2716.5601    
    185000   962.51624     -294886.91      0             -282495.36     -893.07575    
    186000   978.03833     -294864.75      0             -282273.37     -7522.9133    
    187000   981.15155     -295043.9       0             -282412.44     -4442.7693    
    188000   964.73255     -295027.5       0             -282607.42     -2645.3766    
    189000   969.77496     -295133.37      0             -282648.37     -7512.1217    
    190000   992.2928      -294980.14      0             -282205.24     -3207.7886    
    191000   971.51084     -294952.27      0             -282444.92     -909.0124     
    192000   978.78357     -294907.89      0             -282306.91     -4774.3706    
    193000   988.23155     -295107.35      0             -282384.74     -2616.8356    
    194000   997.94272     -295125.52      0             -282277.89     -2190.9551    
    195000   975.56553     -295183.36      0             -282623.81     -3781.025     
    196000   978.20915     -295039.53      0             -282445.95     -3183.5295    
    197000   980.5802      -295107.86      0             -282483.75     -3850.6527    
    198000   977.37148     -295239.91      0             -282657.11     -1496.1472    
    199000   968.91347     -295461.26      0             -282987.36     -3692.4973    
    200000   968.80621     -295387.11      0             -282914.58     -2049.3013    
    201000   969.99498     -295366.14      0             -282878.31     -2293.0406    
    202000   976.27145     -295231.95      0             -282663.32     -1299.1652    
    203000   978.74499     -295281.69      0             -282681.21     -2799.3948    
    204000   976.48319     -295547.33      0             -282975.97     -5532.5011    
    205000   964.65259     -295529.26      0             -283110.21     -3904.7543    
    206000   973.29681     -295517.44      0             -282987.1      -1949.925     
    207000   959.78684     -295622.24      0             -283265.83     -2621.3153    
    208000   989.37241     -295391.1       0             -282653.8      -1742.788     
    209000   985.37242     -295545.88      0             -282860.08     -4919.7946    
    210000   966.53317     -295232.57      0             -282789.3      -3611.0305    
    211000   984.039       -295610.4       0             -282941.77     -3031.0734    
    212000   959.18066     -295478.53      0             -283129.92     -1054.9897    
    213000   982.23492     -295791.28      0             -283145.87     -2992.6316    
    214000   957.63867     -295556.4       0             -283227.65     -3321.0801    
    215000   963.99265     -295397.12      0             -282986.57     -357.02351    
    216000   974.07323     -295515.43      0             -282975.09     -2739.4536    
    217000   981.79444     -295544.78      0             -282905.04     -3080.8081    
    218000   999.75602     -295630.1       0             -282759.13     -1054.756     
    219000   976.46202     -295648.4       0             -283077.31     -2466.5713    
    220000   988.26407     -295649.78      0             -282926.75     -2926.4458    
    221000   981.17668     -295648.62      0             -283016.83     -3526.5102    
    222000   988.46029     -295588.31      0             -282862.75     -2507.3364    
    223000   982.96614     -295711.91      0             -283057.08     -2112.7034    
    224000   957.29893     -295772.67      0             -283448.29     -3631.1324    
    225000   976.99468     -295725.45      0             -283147.5      -4148.4377    
    226000   985.04213     -295753.77      0             -283072.22     -4146.853     
    227000   975.87994     -295869.71      0             -283306.12     -3350.8788    
    228000   953.87637     -295839.61      0             -283559.29     -4898.8748    
    229000   957.19465     -295782.32      0             -283459.28     -2097.2961    
    230000   947.97665     -295866.88      0             -283662.51     -4339.1055    
    231000   975.23073     -295768.55      0             -283213.31     -2694.9933    
    232000   973.31888     -295827.51      0             -283296.89     -1595.8028    
    233000   975.73833     -295866         0             -283304.23     -2007.2347    
    234000   970.83058     -295862.95      0             -283364.36     -800.31002    
    235000   973.2271      -295865.51      0             -283336.07     -4058.166     
    236000   978.44416     -295833.59      0             -283236.98     -1442.5663    
    237000   973.07435     -295884.19      0             -283356.72      482.57219    
    238000   979.89715     -295800.5       0             -283185.19     -2765.9074    
    239000   978.40685     -295892.59      0             -283296.46     -3224.4991    
    240000   977.27517     -295933.91      0             -283352.36     -2377.1009    
    241000   973.09875     -295982.98      0             -283455.19     -1924.4106    
    242000   974.4199      -295925.07      0             -283380.27     -3879.3213    
    243000   960.91556     -296108.27      0             -283737.33     -2607.8729    
    244000   955.81983     -295954.56      0             -283649.22     -3146.7321    
    245000   947.40549     -296012.26      0             -283815.25     -4733.0072    
    246000   956.5637      -296087.02      0             -283772.1      -2738.1043    
    247000   985.17925     -296094.86      0             -283411.55     -1880.8037    
    248000   968.52152     -296109.81      0             -283640.95     -1829.7219    
    249000   979.41661     -296103.28      0             -283494.16     -1711.4748    
    250000   974.03966     -296164.69      0             -283624.78     -2032.3854    
    251000   965.11504     -295942.11      0             -283517.11     -2122.8805    
    252000   976.43102     -296097.89      0             -283527.2      -1541.4529    
    253000   984.44596     -296223.15      0             -283549.28     -2168.5483    
    254000   968.93479     -296134.99      0             -283660.81     -206.80602    
    255000   979.83601     -296143.92      0             -283529.4      -2655.4699    
    256000   967.10385     -296148.62      0             -283698.01     -4088.7258    
    257000   972.92286     -296436.2       0             -283910.68     -945.15776    
    258000   962.00624     -296502.09      0             -284117.11     -3987.2566    
    259000   976.24681     -296297.96      0             -283729.65     -2077.0262    
    260000   984.71604     -296347.35      0             -283670        -2584.6938    
    261000   974.82505     -296386.74      0             -283836.72     -1727.1211    
    262000   977.77494     -296392.62      0             -283804.63     -2859.8246    
    263000   955.32951     -296416.51      0             -284117.48     -674.44567    
    264000   981.00504     -296450.36      0             -283820.78     -2842.778     
    265000   980.06966     -296428.4       0             -283810.87     -2410.422     
    266000   968.65726     -296499.63      0             -284029.02     -4186.5157    
    267000   964.925       -296445         0             -284022.44     -5679.1368    
    268000   955.08175     -296569.68      0             -284273.85     -3311.0304    
    269000   985.77679     -296618.71      0             -283927.7      -3789.7467    
    270000   973.46146     -296481.94      0             -283949.48     -2059.1048    
    271000   977.51492     -296426.15      0             -283841.51     -2674.9767    
    272000   986.24525     -296700.84      0             -284003.8      -4183.5476    
    273000   993.12167     -296602.93      0             -283817.36     -3273.8672    
    274000   969.78379     -296420.79      0             -283935.68     -3008.6171    
    275000   992.23859     -296587.35      0             -283813.15     -3607.0188    
    276000   975.1163      -296518.85      0             -283965.09     -3086.9065    
    277000   974.50041     -296629.75      0             -284083.91     -2245.9704    
    278000   983.31006     -296712.63      0             -284053.38     -563.14299    
    279000   970.0056      -296581.25      0             -284093.29     -70.476989    
    280000   987.22794     -296513.25      0             -283803.56     -1179.4469    
    281000   990.54951     -296525.29      0             -283772.84     -1186.3093    
    282000   965.66002     -296536.12      0             -284104.09     -3043.3139    
    283000   960.18898     -296711.85      0             -284350.26     -2482.9098    
    284000   983.37535     -296584.34      0             -283924.25     -4391.5264    
    285000   998.04079     -296768.06      0             -283919.17     -4179.1565    
    286000   968.09938     -296692.19      0             -284228.76     -4495.2296    
    287000   994.69866     -296761.81      0             -283955.94     -2182.9229    
    288000   986.70227     -296680.02      0             -283977.1      -3432.0361    
    289000   975.29293     -296645.07      0             -284089.03     -2832.9384    
    290000   988.69063     -296759.99      0             -284031.47     -5773.5818    
    291000   968.77325     -296730.05      0             -284257.94     -1282.792     
    292000   982.96411     -296682.51      0             -284027.71     -3697.5345    
    293000   982.17234     -296792.86      0             -284148.26     -2124.4083    
    294000   996.96722     -296751.63      0             -283916.56     -909.95252    
    295000   996.13317     -296857.13      0             -284032.8      -1207.9587    
    296000   976.44655     -296764.83      0             -284193.94     -5409.7661    
    297000   967.95768     -296963.42      0             -284501.82     -809.99716    
    298000   962.51783     -296657.31      0             -284265.74     -4979.2104    
    299000   962.47396     -296872.65      0             -284481.65     -2376.5753    
    300000   960.794       -296935.58      0             -284566.21     -5252.6221    
    301000   971.0235      -296932.38      0             -284431.31     -1767.4031    
    302000   972.86677     -296884.19      0             -284359.39     -5385.3647    
    303000   991.03042     -296938.53      0             -284179.89     -3070.2248    
    304000   987.1875      -296893.35      0             -284184.18     -1650.23      
    305000   971.79526     -296920.74      0             -284409.73     -4954.3107    
    306000   970.51129     -296969.95      0             -284475.47     -459.59019    
    307000   956.30022     -296994.56      0             -284683.04      379.22896    
    308000   967.75041     -296927.81      0             -284468.88     -4259.4172    
    309000   982.26635     -296731.57      0             -284085.76     -2027.3973    
    310000   976.5079      -296889.26      0             -284317.58     -1726.0654    
    311000   976.32337     -297071.67      0             -284502.37     -4856.731     
    312000   979.97426     -297046.05      0             -284429.75     -311.14245    
    313000   981.96328     -297151.85      0             -284509.94     -4700.5178    
    314000   973.02172     -297097.16      0             -284570.36     -5342.9257    
    315000   972.33668     -297098.55      0             -284580.57     -2673.2775    
    316000   978.21528     -297108.67      0             -284515.01     -1344.1868    
    317000   961.82565     -296899.03      0             -284516.37     -3941.6385    
    318000   961.59675     -297027.62      0             -284647.91     -2964.2428    
    319000   957.25446     -297076.67      0             -284752.86     -4076.8422    
    320000   965.45891     -297035.19      0             -284605.76     -1081.4095    
    321000   963.70389     -297006.19      0             -284599.35     -1892.5943    
    322000   992.1045      -296996.62      0             -284224.15     -2649.634     
    323000   969.6226      -297081         0             -284597.96     -4848.6656    
    324000   963.16852     -297221.62      0             -284821.68     -2873.8827    
    325000   972.19871     -297213.67      0             -284697.47     -2193.7314    
    326000   960.04365     -297220.89      0             -284861.17     -3470.6906    
    327000   974.77707     -297179.75      0             -284630.35     -761.7353     
    328000   985.94904     -297076.3       0             -284383.07     -2502.766     
    329000   979.63741     -297165.01      0             -284553.05     -1942.2548    
    330000   988.8113      -297229.42      0             -284499.35     -3969.007     
    331000   977.43777     -296926.5       0             -284342.85     -3112.5567    
    332000   977.50413     -297110.17      0             -284525.66     -4456.344     
    333000   975.71557     -297134.67      0             -284573.19     -3358.0473    
    334000   980.58601     -297178.03      0             -284553.85     -4148.8562    
    335000   961.95803     -297157.9       0             -284773.53     -3166.3572    
    336000   976.82476     -297343.68      0             -284767.92     -2668.3099    
    337000   970.66508     -297166.65      0             -284670.19     -5438.8933    
    338000   970.94396     -297227.54      0             -284727.49     -3118.379     
    339000   961.37424     -297273.2       0             -284896.35     -5354.1316    
    340000   953.21445     -297216.85      0             -284945.06     -449.58517    
    341000   973.23837     -297400.63      0             -284871.05     -4012.9092    
    342000   972.66694     -297402.09      0             -284879.86     -3441.9826    
    343000   995.46855     -297416.08      0             -284600.3      -2859.8497    
    344000   980.89126     -297287.98      0             -284659.87     -3786.7685    
    345000   983.98839     -297288.32      0             -284620.34     -2864.1383    
    346000   974.72463     -297430.75      0             -284882.03     -3383.4062    
    347000   972.96166     -297475.29      0             -284949.27     -3372.1971    
    348000   970.54512     -297276.42      0             -284781.51     -4795.2074    
    349000   976.32121     -297405.44      0             -284836.17     -1252.4423    
    350000   982.60907     -297567.97      0             -284917.75     -1781.8319    
    351000   971.9371      -297587.15      0             -285074.32     -2556.2523    
    352000   961.69217     -297503.55      0             -285122.61     -3131.3356    
    353000   964.70719     -297545.52      0             -285125.76     -3066.0401    
    354000   992.94879     -297466.88      0             -284683.54     -2890.0001    
    355000   960.87964     -297483.24      0             -285112.76     -597.2274     
    356000   972.62062     -297635.74      0             -285114.1      -6397.5754    
    357000   984.83085     -297469.82      0             -284790.99     -1178.3987    
    358000   986.04387     -297484.56      0             -284790.11     -1095.499     
    359000   964.63255     -297569.25      0             -285150.45     -3825.497     
    360000   951.55508     -297642.14      0             -285391.71     -3096.8191    
    361000   967.27152     -297638.72      0             -285185.95     -1807.9917    
    362000   967.52216     -297410.24      0             -284954.25     -1843.9157    
    363000   981.2519      -297793.35      0             -285160.6      -4829.5261    
    364000   982.80558     -297528.37      0             -284875.61     -2598.8123    
    365000   972.1022      -297656.46      0             -285141.5      -3291.3315    
    366000   960.65356     -297757.84      0             -285390.27     -4034.8181    
    367000   972.85554     -297820.59      0             -285295.93     -2566.5631    
    368000   964.73993     -297751.97      0             -285331.8      -2988.8053    
    369000   962.35581     -297834.11      0             -285444.63     -3243.5357    
    370000   971.963       -297636.14      0             -285122.98     -2132.5591    
    371000   969.18658     -297735.44      0             -285258.02     -3012.242     
    372000   987.75617     -297711.41      0             -284994.92     -2981.1184    
    373000   976.47981     -297736.26      0             -285164.94     -3328.8333    
    374000   992.56102     -297777.03      0             -284998.69     -3813.1609    
    375000   974.9293      -297712.64      0             -285161.28     -3365.5933    
    376000   979.01514     -297798.17      0             -285194.22     -3590.625     
    377000   968.7278      -297663.23      0             -285191.71     -2611.2253    
    378000   968.53441     -297815.06      0             -285346.03     -3447.6202    
    379000   964.03975     -297789         0             -285377.83     -1223.0916    
    380000   951.76771     -297738.42      0             -285485.25     -4246.5134    
    381000   974.97006     -297712.91      0             -285161.03     -1199.3863    
    382000   999.02375     -297841.33      0             -284979.78     -2426.8815    
    383000   996.53494     -297903.49      0             -285073.98     -2599.6884    
    384000   958.55275     -297826.32      0             -285485.8      -4396.3371    
    385000   960.76905     -297844.6       0             -285475.54     -2171.0043    
    386000   983.67382     -297942.62      0             -285278.68     -2351.6168    
    387000   992.30713     -297773.79      0             -284998.71     -3697.5708    
    388000   956.02329     -297665.06      0             -285357.1      -2698.5758    
    389000   951.12511     -297829.41      0             -285584.51     -5637.2288    
    390000   966.25136     -297833.86      0             -285394.22     -3431.8443    
    391000   967.90823     -297963         0             -285502.04     -2386.7973    
    392000   967.55482     -297902.36      0             -285445.94     -3048.9559    
    393000   965.66721     -298016.94      0             -285584.83     -4038.0638    
    394000   961.72518     -297817.62      0             -285436.26     -2404.217     
    395000   973.80013     -297871.64      0             -285334.82     -637.63019    
    396000   960.34765     -297918.58      0             -285554.95     -5279.7889    
    397000   973.33557     -297976.86      0             -285446.02     -722.76951    
    398000   966.42221     -297900.06      0             -285458.23     -1932.2008    
    399000   967.69791     -297891.19      0             -285432.93     -1387.2763    
    400000   969.71608     -297819.76      0             -285335.52     -2030.302     
    401000   991.65967     -297801.14      0             -285034.4      -2941.01      
    402000   990.0368      -298019.78      0             -285273.93     -589.86366    
    403000   968.07812     -297876.24      0             -285413.09     -2301.7035    
    404000   957.41983     -297949.71      0             -285623.77     -5741.9531    
    405000   937.53421     -297956.6       0             -285886.67     -1671.6195    
    406000   970.42046     -297981.65      0             -285488.34     -2464.0072    
    407000   962.84676     -298121.72      0             -285725.92     -3321.5308    
    408000   986.29254     -298035.22      0             -285337.58     -3579.1715    
    409000   971.2231      -298029.57      0             -285525.93     -3750.0826    
    410000   975.48519     -298006.73      0             -285448.22     -2702.204     
    411000   964.89794     -297898.76      0             -285476.55     -3111.5499    
    412000   966.85532     -298166.55      0             -285719.14     -2140.1741    
    413000   961.66242     -298024.23      0             -285643.68     -1809.0911    
    414000   955.42771     -298216.23      0             -285915.94     -2496.2636    
    415000   970.41246     -298026.73      0             -285533.52     -2712.2969    
    416000   984.55385     -298060.53      0             -285385.27     -3510.9615    
    417000   972.68657     -298084.42      0             -285561.94     -3014.6578    
    418000   976.14417     -298097.05      0             -285530.05     -2384.8695    
    419000   982.70417     -298114.33      0             -285462.88     -2475.9107    
    420000   978.56736     -298165.01      0             -285566.81     -3626.4139    
    421000   979.28062     -298128.06      0             -285520.69     -4687.7343    
    422000   970.25437     -298065.42      0             -285574.25     -4344.5803    
    423000   956.15679     -298092.63      0             -285782.96     -965.30153    
    424000   956.89022     -298103.18      0             -285784.06     -1050.435     
    425000   980.01225     -298212.16      0             -285595.36     -120.20026    
    426000   991.18216     -298042.55      0             -285281.95     -4984.0761    
    427000   986.60362     -298165.99      0             -285464.33     -2845.376     
    428000   980.7696      -298320.94      0             -285694.4      -2120.0664    
    429000   955.87745     -298148.64      0             -285842.56     -3714.9578    
    430000   959.40974     -298180.33      0             -285828.78     -4107.1289    
    431000   982.60836     -298080         0             -285429.78     -3218.4104    
    432000   986.10838     -298244.91      0             -285549.63     -6740.2203    
    433000   988.50518     -298153.34      0             -285427.2      -1992.9742    
    434000   956.47596     -298186.52      0             -285872.73     -1815.1519    
    435000   971.05953     -298195.21      0             -285693.67     -1707.5292    
    436000   963.3244      -297889.22      0             -285487.27     -3178.5723    
    437000   984.13023     -298203.01      0             -285533.2      -1985.3407    
    438000   977.34792     -298275.47      0             -285692.98     -3282.7264    
    439000   975.09784     -298222.09      0             -285668.56     -1480.1826    
    440000   975.83678     -298198.92      0             -285635.88     -2620.7795    
    441000   993.47946     -298218.69      0             -285428.52     -3952.3205    
    442000   969.17733     -298239.42      0             -285762.12     -5925.0135    
    443000   980.46485     -298219.14      0             -285596.52     -3847.559     
    444000   965.2566      -298053.13      0             -285626.3      -4507.8162    
    445000   950.11433     -298295.48      0             -286063.6      -2950.6198    
    446000   968.25958     -298379.71      0             -285914.22     -6572.287     
    447000   965.24076     -298411.39      0             -285984.77     -6569.6673    
    448000   976.92176     -298174.9       0             -285597.89     -3428.927     
    449000   971.2911      -298293.38      0             -285788.87     -3758.0262    
    450000   979.65871     -298080.34      0             -285468.1      -2578.7244    
    451000   989.25282     -298223.06      0             -285487.3      -2191.4422    
    452000   985.25453     -298290.62      0             -285606.34     -1954.2529    
    453000   978.94115     -298430.13      0             -285827.12     -4434.0392    
    454000   970.20569     -298312.71      0             -285822.17     -294.61674    
    455000   946.86633     -298339.83      0             -286149.76     -4877.3098    
    456000   959.37266     -298312.61      0             -285961.54     -5181.203     
    457000   989.93739     -298295.2       0             -285550.63     -1658.7811    
    458000   995.23145     -298373.34      0             -285560.62     -3427.2359    
    459000   980.87621     -298451.86      0             -285823.94     -4576.6098    
    460000   969.61098     -298468.15      0             -285985.26     -3116.3453    
    461000   972.88946     -298517.26      0             -285992.16     -2616.912     
    462000   952.93845     -298481.93      0             -286213.69     -3510.0044    
    463000   971.17302     -298401.18      0             -285898.18     -4985.2118    
    464000   969.45963     -298407.89      0             -285926.96     -4948.697     
    465000   983.88296     -298490.89      0             -285824.27     -4888.8875    
    466000   964.55305     -298477.58      0             -286059.81     -3929.4924    
    467000   960.07437     -298284.77      0             -285924.66     -696.20556    
    468000   977.81132     -298533.94      0             -285945.48     -651.92657    
    469000   955.82647     -298522.44      0             -286217.02     -2150.2878    
    470000   962.91533     -298714.81      0             -286318.12     -5823.0774    
    471000   968.87076     -298596.13      0             -286122.77     -3038.3603    
    472000   971.41136     -298547.39      0             -286041.33     -294.80842    
    473000   980.88472     -298686.84      0             -286058.81     -3596.0517    
    474000   958.48353     -298590.72      0             -286251.09     -2894.0222    
    475000   972.42589     -298571.03      0             -286051.91     -1288.0262    
    476000   967.92492     -298559.67      0             -286098.49     -3083.348     
    477000   951.88743     -298525.44      0             -286270.73     -2181.0133    
    478000   969.78484     -298446.73      0             -285961.6      -2956.1185    
    479000   1001.1984     -298723         0             -285833.45     -2226.3591    
    480000   984.05397     -298572.56      0             -285903.73     -2855.5446    
    481000   977.29685     -298374.37      0             -285792.54     -2666.8415    
    482000   975.8737      -298746.56      0             -286183.05     -3456.7396    
    483000   982.68122     -298692.06      0             -286040.9      -3225.5891    
    484000   980.73344     -298778.3       0             -286152.23     -3309.7852    
    485000   983.35913     -298613.22      0             -285953.34     -1079.6351    
    486000   958.89616     -298517.32      0             -286172.38      0.10834656   
    487000   997.87021     -298549.37      0             -285702.67     -2929.7353    
    488000   954.73476     -298430.24      0             -286138.87     -4753.3895    
    489000   971.93351     -298558.83      0             -286046.04     -3470.9593    
    490000   980.48983     -298578.3       0             -285955.36     -2114.8171    
    491000   944.54873     -298680.13      0             -286519.9      -3139.9417    
    492000   971.39628     -298664.82      0             -286158.95     -3642.4098    
    493000   957.28687     -298771.41      0             -286447.19     -3109.9792    
    494000   963.38899     -298716.49      0             -286313.71     -2899.3287    
    495000   974.58382     -298665.75      0             -286118.85     -6031.594     
    496000   965.71396     -298597.24      0             -286164.52     -3046.3705    
    497000   959.14657     -298659.25      0             -286311.08     -3989.9561    
    498000   969.09606     -298717.17      0             -286240.91     -3032.628     
    499000   973.82479     -298550.96      0             -286013.83     -3549.7921    
    500000   977.27572     -298684.01      0             -286102.45     -2912.7391    
    501000   959.3411      -298590.72      0             -286240.05     -3077.1947    
    502000   963.95102     -298685.46      0             -286275.44     -2270.8448    
    503000   968.35461     -298648.25      0             -286181.53     -4071.2397    
    504000   970.29116     -298636.91      0             -286145.27     -5479.95      
    505000   987.02931     -298607.97      0             -285900.83     -3281.7423    
    506000   971.92611     -298745.36      0             -286232.67     -4493.3963    
    507000   955.30551     -298623.78      0             -286325.07     -3576.454     
    508000   983.25881     -298654.09      0             -285995.5      -4177.489     
    509000   973.16146     -298637.21      0             -286108.61     -1156.1592    
    510000   965.30762     -298665.03      0             -286237.55     -5306.8406    
    511000   978.10366     -298727.89      0             -286135.67     -3506.1914    
    512000   970.64688     -298657.16      0             -286160.94     -2354.4677    
    513000   966.33063     -298620.17      0             -286179.52     -3684.8338    
    514000   968.02187     -298604.34      0             -286141.92     -1933.2271    
    515000   969.84425     -298634.85      0             -286148.96     -367.28429    
    516000   961.72868     -298753.87      0             -286372.47     -3157.7295    
    517000   959.5569      -298617.68      0             -286264.23     -4024.8256    
    518000   948.47567     -298760.73      0             -286549.94     -3390.7179    
    519000   968.91778     -298743.98      0             -286270.02     -2472.2228    
    520000   959.8362      -298596.39      0             -286239.34     -2800.3375    
    521000   959.24732     -298606.76      0             -286257.29     -3084.9233    
    522000   954.02914     -298762.59      0             -286480.3      -4229.2962    
    523000   957.12122     -298822.85      0             -286500.76     -2901.6495    
    524000   983.90235     -298797.2       0             -286130.32     -1660.5272    
    525000   981.05688     -298649.98      0             -286019.74     -1574.0514    
    526000   992.72745     -298771.67      0             -285991.18     -3114.2877    
    527000   986.31235     -298793.79      0             -286095.89     -3542.4167    
    528000   952.01384     -298745.22      0             -286488.88     -3211.9106    
    529000   957.46008     -298705.39      0             -286378.94     -962.40395    
    530000   988.23899     -298792.44      0             -286069.74     -2535.8128    
    531000   970.61549     -298609.82      0             -286114        -3354.4681    
    532000   963.2922      -298749.37      0             -286347.83     -4172.7579    
    533000   977.7784      -298771.24      0             -286183.21     -1291.9114    
    534000   975.6214      -298788.71      0             -286228.45     -3522.2949    
    535000   948.1342      -298700.04      0             -286493.65     -2308.5807    
    536000   963.71386     -298759.74      0             -286352.77     -1601.1586    
    537000   963.38306     -298838.96      0             -286436.25     -3658.0828    
    538000   968.20131     -298734.84      0             -286270.1      -792.06366    
    539000   977.43822     -298650.18      0             -286066.53     -3298.5825    
    540000   976.68564     -298557.93      0             -285983.97     -2611.9932    
    541000   987.87411     -298668.91      0             -285950.9      -2934.8237    
    542000   968.90483     -298727.9       0             -286254.11     -2335.3754    
    543000   957.84211     -298592.83      0             -286261.46     -5211.3882    
    544000   968.0095      -298714         0             -286251.73     -3094.67      
    545000   987.56308     -298649.81      0             -285935.8      -3318.5296    
    546000   970.61441     -298584.95      0             -286089.15     -2711.5998    
    547000   979.49523     -298761.47      0             -286151.34     -2687.1205    
    548000   979.76166     -298767.5       0             -286153.93     -3139.6624    
    549000   974.67687     -298432.17      0             -285884.07     -2553.5757    
    550000   975.41214     -298735.45      0             -286177.88     -2479.1108    
    551000   950.12463     -298728.64      0             -286496.62     -3707.7873    
    552000   973.99114     -298784.87      0             -286245.59     -2630.7557    
    553000   956.05015     -298728.04      0             -286419.74     -3631.2729    
    554000   966.66416     -298715.99      0             -286271.05     -2711.0101    
    555000   971.80102     -298772.06      0             -286260.98     -4820.8567    
    556000   993.21808     -298642.85      0             -285856.04     -1203.899     
    557000   975.40972     -298673.66      0             -286116.12     -4081.4604    
    558000   953.38503     -298704.07      0             -286430.07     -1192.9235    
    559000   963.93717     -298938.45      0             -286528.6      -2738.7492    
    560000   959.22188     -298638.98      0             -286289.84     -2339.3732    
    561000   952.7061      -298670.45      0             -286405.2      -5553.5737    
    562000   968.62217     -298757.88      0             -286287.73     -1172.0552    
    563000   972.25538     -298752.93      0             -286236        -2328.4351    
    564000   988.07852     -298877.13      0             -286156.49     -2686.4514    
    565000   979.92856     -298840.52      0             -286224.8      -3224.3885    
    566000   968.29975     -298759.99      0             -286293.98     -3556.4699    
    567000   959.87872     -298608.25      0             -286250.66      1291.9145    
    568000   991.84659     -298697.7       0             -285928.55     -5743.4387    
    569000   986.18637     -298709.56      0             -286013.27     -3295.1526    
    570000   982.00174     -298818.81      0             -286176.4      -1009.8201    
    571000   960.42466     -298819.02      0             -286454.4      -4029.779     
    572000   969.0373      -298772.32      0             -286296.81     -3239.6787    
    573000   947.59475     -298704.06      0             -286504.61     -1552.1095    
    574000   961.7221      -298881.59      0             -286500.26     -2901.3044    
    575000   960.61434     -298705.51      0             -286338.45     -3893.8994    
    576000   974.37458     -298952.45      0             -286408.23     -1564.07      
    577000   959.7578      -298852.65      0             -286496.62     -3606.7127    
    578000   975.54889     -298899.47      0             -286340.13     -5587.8891    
    579000   984.30831     -298736.91      0             -286064.81     -233.97392    
    580000   963.23385     -298782.7       0             -286381.92     -1913.2912    
    581000   955.41178     -298576.29      0             -286276.2      -2459.0717    
    582000   966.39528     -298726.28      0             -286284.79     -3739.3847    
    583000   1001.4439     -298917.27      0             -286024.56     -3969.1988    
    584000   985.29851     -298933.55      0             -286248.7      -3779.052     
    585000   967.73089     -298812.06      0             -286353.38     -1044.6077    
    586000   969.47925     -298735.61      0             -286254.42     -2488.2542    
    587000   949.51524     -298824.08      0             -286599.91      55.036721    
    588000   967.20812     -298659.45      0             -286207.5      -1799.1978    
    589000   980.14111     -298793.1       0             -286174.65     -613.56073    
    590000   981.56561     -298562.16      0             -285925.37     -1374.1174    
    591000   968.18017     -298781.44      0             -286316.98     -1880.5368    
    592000   970.70811     -298800.07      0             -286303.06     -4643.1417    
    593000   965.85711     -298667.93      0             -286233.37     -2584.8825    
    594000   969.98096     -298828.7       0             -286341.05     -1399.092     
    595000   954.65608     -298960.05      0             -286669.69     -4089.6946    
    596000   979.77159     -298829.74      0             -286216.04     -5228.6221    
    597000   974.2127      -298745.95      0             -286203.82     -5456.2596    
    598000   963.69857     -298652.3       0             -286245.53     -2498.391     
    599000   967.78151     -298834.75      0             -286375.42     -3162.6987    
    600000   990.92056     -298801.5       0             -286044.27     -4253.569     
    601000   992.57474     -298721.78      0             -285943.26     -3747.0156    
    602000   983.78209     -298765.82      0             -286100.5      -3198.7531    
    603000   972.78798     -298691.58      0             -286167.79     -2002.743     
    604000   975.95889     -298864.92      0             -286300.31     -1724.2656    
    605000   951.83324     -298844.77      0             -286590.75     -2536.5619    
    606000   982.66381     -298806.67      0             -286155.74     -1873.8449    
    607000   944.94309     -298758.05      0             -286592.74     -2329.2882    
    608000   980.68156     -298883.76      0             -286258.34     -1559.0609    
    609000   971.00359     -298908.39      0             -286407.57     -1259.4842    
    610000   948.91018     -298754.39      0             -286538.01     -2804.6017    
    611000   971.07543     -298886.06      0             -286384.32     -4751.7293    
    612000   966.19177     -298803.61      0             -286364.75     -2615.7209    
    613000   954.94509     -298790.65      0             -286496.57     -3157.4881    
    614000   958.31161     -298761.61      0             -286424.19     -2327.2497    
    615000   977.06731     -298868.85      0             -286289.97     -4403.1017    
    616000   969.10325     -298744.21      0             -286267.86     -2866.0122    
    617000   970.56713     -298763.13      0             -286267.93     -3280.5153    
    618000   995.40786     -298737.51      0             -285922.51     -5366.7579    
    619000   980.14215     -298861.39      0             -286242.92     -2548.1442    
    620000   977.81474     -298872.44      0             -286283.93     -2776.2224    
    621000   963.39948     -298814.76      0             -286411.84     -1706.8768    
    622000   992.85333     -298654.41      0             -285872.3      -3105.0571    
    623000   976.98682     -298776.57      0             -286198.72     -2248.3694    
    624000   982.91324     -298744.68      0             -286090.54     -1650.6069    
    625000   988.29431     -298655.7       0             -285932.28     -4167.5089    
    626000   979.5427      -298794.93      0             -286184.18      32.121542    
    627000   987.11647     -298868.03      0             -286159.78     -4225.4055    
    628000   985.85703     -298813.52      0             -286121.48     -3836.4765    
    629000   982.16073     -298843.86      0             -286199.41     -782.35235    
    630000   986.43815     -298740.51      0             -286040.99     -2473.7091    
    631000   979.94949     -298821.46      0             -286205.48     -1141.7623    
    632000   978.7215      -298729.42      0             -286129.24     -3302.7068    
    633000   992.73939     -298761.06      0             -285980.42     -1963.8492    
    634000   970.43537     -298718.55      0             -286225.05     -2226.1859    
    635000   955.97705     -298709.24      0             -286401.87     -3560.6977    
    636000   975.54235     -298865.73      0             -286306.49     -2556.8978    
    637000   969.87603     -298846.78      0             -286360.48     -3158.1093    
    638000   978.98881     -298854.72      0             -286251.1      -3000.4595    
    639000   973.82358     -298935.95      0             -286398.83     -4099.6236    
    640000   968.623       -298890.5       0             -286420.33     -4143.0954    
    641000   962.18782     -298883.43      0             -286496.11     -2011.6946    
    642000   964.05942     -298716.83      0             -286305.42     -3836.9556    
    643000   975.71303     -298999.17      0             -286437.73     -1946.5441    
    644000   970.45336     -298827.84      0             -286334.1      -2162.2902    
    645000   966.64466     -298880.62      0             -286435.92     -2179.956     
    646000   977.49057     -298910.03      0             -286325.7      -4653.7882    
    647000   966.58387     -298970.38      0             -286526.47     -2534.2011    
    648000   952.43342     -298796.08      0             -286534.34     -2392.6497    
    649000   964.63545     -299027.24      0             -286608.41     -7817.5024    
    650000   975.83563     -298939.05      0             -286376.03     -2047.5156    
    651000   989.80816     -298991.34      0             -286248.44     -3146.6086    
    652000   978.98886     -298912.32      0             -286308.7      -4874.4971    
    653000   984.11795     -298924.96      0             -286255.31     -3717.2038    
    654000   985.68231     -298826.76      0             -286136.97     -5127.806     
    655000   977.17912     -298801.46      0             -286221.14     -4091.304     
    656000   974.59567     -298879.61      0             -286332.55     -3835.0606    
    657000   962.2354      -298828.71      0             -286440.78     -1905.5542    
    658000   996.90655     -298909.67      0             -286075.38     -3324.9362    
    659000   976.77806     -298735.85      0             -286160.69     -1154.9553    
    660000   977.12853     -298812.01      0             -286232.34     -3486.7375    
    661000   980.20421     -298864         0             -286244.73     -3157.4922    
    662000   973.35261     -298740.41      0             -286209.35     -2171.1423    
    663000   969.14006     -298809.74      0             -286332.92     -6142.365     
    664000   973.07536     -298934.26      0             -286406.78     -1685.2613    
    665000   971.98037     -298817.16      0             -286303.77     -2002.8161    
    666000   980.02418     -298884.63      0             -286267.68     -2955.0691    
    667000   967.33318     -298855.95      0             -286402.39     -2892.7418    
    668000   970.61311     -298894.86      0             -286399.07     -3099.3506    
    669000   969.911       -299053.56      0             -286566.81     -2184.2101    
    670000   971.9723      -299147.75      0             -286634.46     -3128.95      
    671000   962.1058      -298907.28      0             -286521.01     -1692.9379    
    672000   979.07969     -298984.28      0             -286379.5      -1423.789     
    673000   977.70557     -298985.47      0             -286398.37     -3874.7355    
    674000   969.0856      -298972.19      0             -286496.06     -3218.1759    
    675000   975.85008     -298979.16      0             -286415.95     -2037.0779    
    676000   972.75398     -298990.63      0             -286467.28     -2898.6885    
    677000   968.82508     -299081.31      0             -286608.54     -1579.3089    
    678000   971.94742     -299039.51      0             -286526.55     -4718.8067    
    679000   967.69837     -298984.14      0             -286525.88     -4795.8921    
    680000   977.59304     -298901.5       0             -286315.85     -3013.9527    
    681000   977.36088     -298971.76      0             -286389.1      -487.62623    
    682000   975.87899     -298959.41      0             -286395.83     -3211.4968    
    683000   972.60859     -299001.98      0             -286480.5      -2444.8486    
    684000   948.9055      -298956.49      0             -286740.17     -3069.2704    
    685000   983.2659      -299003.92      0             -286345.24     -346.15383    
    686000   989.25143     -298789.39      0             -286053.64     -3251.5405    
    687000   970.30411     -298863.26      0             -286371.45     -2954.411     
    688000   975.35451     -298839.58      0             -286282.75     -1112.7142    
    689000   986.43978     -298979.55      0             -286280.01     -4044.3169    
    690000   983.01177     -299218.31      0             -286562.9      -2854.4463    
    691000   962.55438     -298879.41      0             -286487.37     -3087.45      
    692000   980.86962     -298940.46      0             -286312.62     -1425.3298    
    693000   978.34349     -298956.02      0             -286360.71     -3801.5314    
    694000   977.70917     -298931.45      0             -286344.3      -0.19224768   
    695000   985.2536      -298968.31      0             -286284.04     -2266.4453    
    696000   985.09692     -298921.7       0             -286239.45     -3616.5394    
    697000   983.05135     -298875.97      0             -286220.05     -4577.3705    
    698000   979.92317     -299005.12      0             -286389.47     -3962.4616    
    699000   993.18277     -298994.95      0             -286208.6      -3212.2767    
    700000   974.64403     -298919.61      0             -286371.93     -2656.3633    
    701000   987.17884     -299090.74      0             -286381.68     -3555.1957    
    702000   975.57212     -299060.47      0             -286500.84     -5013.6725    
    703000   987.3046      -299032.19      0             -286321.51     -3150.6826    
    704000   959.61753     -299159.34      0             -286805.11     -2327.5487    
    705000   971.11039     -299103.98      0             -286601.79      152.66568    
    706000   973.1233      -299078.37      0             -286550.27     -2632.8864    
    707000   982.66356     -299063.4       0             -286412.47     -1087.8475    
    708000   991.84641     -299230.36      0             -286461.21     -2539.5119    
    709000   992.79857     -299050.84      0             -286269.44     -4476.8287    
    710000   978.62898     -299098.13      0             -286499.15     -2412.3725    
    711000   975.62824     -298992.9       0             -286432.55     -2226.1772    
    712000   953.81748     -299181.86      0             -286902.3      -5782.2578    
    713000   977.62437     -299089.74      0             -286503.69     -1959.4943    
    714000   971.22483     -299110.59      0             -286606.93     -2104.968     
    715000   975.20828     -299066.53      0             -286511.58     -2936.9466    
    716000   986.46023     -298996.32      0             -286296.52     -3685.0693    
    717000   964.56003     -299068.69      0             -286650.83     -3814.5081    
    718000   952.31434     -299112.43      0             -286852.23     -4625.1314    
    719000   961.37756     -299115.33      0             -286738.44     -1532.5068    
    720000   962.29467     -299180.85      0             -286792.15     -2031.7002    
    721000   983.38663     -299006.13      0             -286345.9      -3115.3317    
    722000   983.28756     -299070.06      0             -286411.1      -2166.1071    
    723000   990.33313     -299139.83      0             -286390.16     -1880.9428    
    724000   983.1544      -299005.93      0             -286348.69     -5066.9181    
    725000   970.23674     -299209.79      0             -286718.84     -5711.5949    
    726000   964.99133     -299076.62      0             -286653.21     -757.94794    
    727000   971.2379      -299134.25      0             -286630.42     -4293.3346    
    728000   991.58885     -299038.39      0             -286272.56     -1249.281     
    729000   960.96424     -299143.91      0             -286772.34     -1902.9974    
    730000   959.84357     -299031.17      0             -286674.03     -3941.9435    
    731000   980.14657     -299019.45      0             -286400.92     -1830.2675    
    732000   990.02363     -298939.22      0             -286193.54     -3622.0043    
    733000   982.10694     -299031.21      0             -286387.45     -3603.2052    
    734000   979.22329     -299037.45      0             -286430.81     -1248.0156    
    735000   984.26706     -299074.35      0             -286402.78     -2291.6543    
    736000   986.46367     -299026.96      0             -286327.11     -2848.1015    
    737000   991.45692     -299048.02      0             -286283.89     -2841.5728    
    738000   977.84221     -298973.28      0             -286384.42     -488.2956     
    739000   965.6241      -299033.38      0             -286601.82     -4648.2333    
    740000   969.93747     -299210.18      0             -286723.09     -2908.5512    
    741000   963.74116     -299137.17      0             -286729.85     -2257.11      
    742000   955.27957     -299200.99      0             -286902.61     -3854.7571    
    743000   955.57785     -299016.86      0             -286714.63     -752.34423    
    744000   961.14636     -299140.65      0             -286766.74     -4316.9813    
    745000   969.48905     -299112         0             -286630.68     -2179.6895    
    746000   965.0024      -299229.9       0             -286806.35     -3453.2958    
    747000   948.09364     -299100.63      0             -286894.76     -2691.5058    
    748000   970.54809     -299313.83      0             -286818.88     -2701.0607    
    749000   965.23545     -299180.37      0             -286753.81     -5406.5748    
    750000   958.4708      -299304.12      0             -286964.66      1043.0094    
    751000   983.81259     -299259.55      0             -286593.83     -1652.5046    
    752000   970.09516     -299036.14      0             -286547.02     -4256.285     
    753000   967.43981     -299038.93      0             -286583.99     -2966.4312    
    754000   979.9229      -299195         0             -286579.36     -2810.1151    
    755000   977.63383     -299287.49      0             -286701.32     -2375.9273    
    756000   955.06982     -299236.53      0             -286940.85     -1393.3842    
    757000   978.09738     -299297.06      0             -286704.92     -4803.2575    
    758000   967.85642     -299161.61      0             -286701.32     -1956.2247    
    759000   942.85862     -299093.28      0             -286954.81     -2546.2557    
    760000   961.45837     -299346.73      0             -286968.8      -3606.0291    
    761000   964.46888     -299249.45      0             -286832.76     -5200.2224    
    762000   979.01584     -299292.8       0             -286688.83     -47.76749     
    763000   956.68672     -299251.36      0             -286934.86     -2256.2301    
    764000   960.27391     -299285.92      0             -286923.24     -3452.3576    
    765000   948.6341      -299299.25      0             -287086.42     -1578.7412    
    766000   980.27271     -299352.54      0             -286732.4      -3441.2642    
    767000   956.30227     -299218.91      0             -286907.36     -2554.0704    
    768000   969.90671     -299324.2       0             -286837.5      -2680.8324    
    769000   970.35072     -299311.9       0             -286819.49     -2850.8725    
    770000   964.22263     -299341.47      0             -286927.95     -3430.801     
    771000   969.1623      -299223.36      0             -286746.25     -3406.9824    
[...]
   4789000   990.78597     -304839.67      0             -292084.17     -1962.3444    
   4790000   969.31878     -304843.3       0             -292364.17     -3152.2604    
   4791000   956.86547     -304849.31      0             -292530.51     -1353.2837    
   4792000   968.98653     -304851.61      0             -292376.76     -2174.2932    
   4793000   982.6774      -304831.82      0             -292180.72     -1443.8225    
   4794000   986.19994     -304857.2       0             -292160.74     -1063.3841    
   4795000   987.14792     -304835.21      0             -292126.55     -1589.2119    
   4796000   958.27024     -304840.87      0             -292503.99     -2032.7312    
   4797000   962.29342     -304837.97      0             -292449.29     -2034.7821    
   4798000   967.36917     -304842.53      0             -292388.51     -2239.9998    
   4799000   982.07808     -304837.26      0             -292193.87     -2407.7906    
   4800000   957.33888     -304827.37      0             -292502.48     -2007.1675    
   4801000   965.1232      -304844.87      0             -292419.76     -1668.1426    
   4802000   983.10458     -304851.51      0             -292194.91     -2184.3691    
   4803000   977.20045     -304838.47      0             -292257.87     -1257.9835    
   4804000   973.46426     -304846.57      0             -292314.08     -1335.1119    
   4805000   969.75709     -304846.39      0             -292361.63     -2122.6699    
   4806000   970.58122     -304829.12      0             -292333.75     -2122.1309    
   4807000   982.82128     -304829.68      0             -292176.73     -2016.834     
   4808000   977.2499      -304836.87      0             -292255.64     -2624.1848    
   4809000   968.93697     -304839.47      0             -292365.26     -1667.256     
   4810000   962.68772     -304853.23      0             -292459.48     -2484.8634    
   4811000   982.3727      -304842.63      0             -292195.45     -1930.9419    
   4812000   973.90657     -304839.52      0             -292301.33     -2110.1733    
   4813000   956.62584     -304833.11      0             -292517.4      -2093.6202    
   4814000   970.64864     -304849.22      0             -292352.97     -2212.1085    
   4815000   974.62489     -304845.25      0             -292297.81     -2975.6939    
   4816000   979.22849     -304846.81      0             -292240.11     -1089.4001    
   4817000   969.85149     -304844.3       0             -292358.32     -2056.7877    
   4818000   963.1592      -304843.92      0             -292444.1      -1618.2453    
   4819000   984.39318     -304848.73      0             -292175.53     -2160.1846    
   4820000   954.54331     -304840.16      0             -292551.25     -1378.975     
   4821000   977.88195     -304847.44      0             -292258.07     -2479.9347    
   4822000   981.30489     -304848.56      0             -292215.12     -1920.0983    
   4823000   956.18931     -304838.05      0             -292527.95     -2137.7342    
   4824000   976.13836     -304818.87      0             -292251.95     -1791.8032    
   4825000   986.92114     -304836.88      0             -292131.14     -2341.1007    
   4826000   954.09023     -304850.1       0             -292567.03     -2348.2996    
   4827000   979.58679     -304835.95      0             -292224.63     -1954.7219    
   4828000   985.6288      -304839.63      0             -292150.53     -1861.9689    
   4829000   962.70926     -304845.33      0             -292451.3      -2527.6149    
   4830000   963.88032     -304856.94      0             -292447.83     -2244.0697    
   4831000   975.25438     -304833.16      0             -292277.62     -1540.2742    
   4832000   974.6379      -304842.24      0             -292294.64     -2125.2551    
   4833000   957.40541     -304843.42      0             -292517.67     -1852.8592    
   4834000   980.428       -304842.7       0             -292220.55     -1496.323     
   4835000   982.98323     -304829.97      0             -292174.93     -1506.7926    
   4836000   960.86949     -304859.48      0             -292489.13     -2093.2772    
   4837000   966.57274     -304845.4       0             -292401.63     -1611.5121    
   4838000   957.27848     -304853.63      0             -292529.52     -1803.5438    
   4839000   976.4034      -304852.94      0             -292282.61     -1097.4903    
   4840000   978.2983      -304846.52      0             -292251.79     -2011.8247    
   4841000   977.54826     -304830.35      0             -292245.28     -2042.5233    
   4842000   962.57679     -304855.69      0             -292463.36     -1771.6286    
   4843000   962.55882     -304845.72      0             -292453.62     -1357.6865    
   4844000   983.51121     -304836.78      0             -292174.94     -1704.3515    
   4845000   979.21904     -304838.36      0             -292231.78     -1859.9406    
   4846000   958.33815     -304843.27      0             -292505.51     -2119.0205    
   4847000   992.67077     -304842.53      0             -292062.77     -1932.4774    
   4848000   967.9635      -304837.68      0             -292376        -1793.8822    
   4849000   960.54629     -304850.39      0             -292484.21     -1664.3518    
   4850000   978.19869     -304854.73      0             -292261.29     -2242.5782    
   4851000   987.20847     -304832.81      0             -292123.37     -1956.799     
   4852000   964.16787     -304842.03      0             -292429.21     -1895.5007    
   4853000   972.01934     -304852.62      0             -292338.73     -2220.4368    
   4854000   958.33559     -304848.82      0             -292511.1      -1635.6437    
   4855000   988.06836     -304835.51      0             -292115        -2075.2406    
   4856000   973.17496     -304837.7       0             -292308.93     -1916.3689    
   4857000   948.65161     -304836.49      0             -292623.44     -2265.2351    
   4858000   978.76524     -304834.91      0             -292234.17     -1686.9481    
   4859000   991.34217     -304838.89      0             -292076.24     -2185.5838    
   4860000   978.78451     -304839.42      0             -292238.43     -1764.4431    
   4861000   979.04067     -304836.42      0             -292232.14     -1824.0366    
   4862000   955.46874     -304858.33      0             -292557.51     -1466.7929    
   4863000   965.74518     -304842         0             -292408.88     -1951.075     
   4864000   975.35321     -304845.82      0             -292289.01     -2117.9413    
   4865000   983.4051      -304843.97      0             -292183.49     -1690.6221    
   4866000   949.60864     -304866.69      0             -292641.31     -1499.7304    
   4867000   984.47947     -304833.84      0             -292159.53     -2708.0772    
   4868000   977.21831     -304837.63      0             -292256.81     -1510.8804    
   4869000   950.36637     -304852.37      0             -292617.24     -1297.0033    
   4870000   978.80987     -304856.76      0             -292255.45     -1857.817     
   4871000   994.26311     -304839.05      0             -292038.79     -2443.9027    
   4872000   970.18176     -304853.28      0             -292363.04     -1662.5756    
   4873000   963.54404     -304844.88      0             -292440.1      -1597.1045    
   4874000   964.14217     -304849.65      0             -292437.17     -2654.381     
   4875000   981.72119     -304838.46      0             -292199.66     -1811.9352    
   4876000   986.72607     -304848.94      0             -292145.71     -1967.9775    
   4877000   971.59264     -304842.37      0             -292333.97     -2761.1269    
   4878000   962.17413     -304842.41      0             -292455.26     -2253.4461    
   4879000   978.62753     -304844.42      0             -292245.45     -2010.4435    
   4880000   978.8484      -304844.84      0             -292243.03     -1812.518     
   4881000   968.49127     -304850.45      0             -292381.98     -1878.2233    
   4882000   987.80248     -304854.75      0             -292137.66     -1649.0038    
   4883000   981.30418     -304854.58      0             -292221.15     -1063.5918    
   4884000   969.04792     -304837.48      0             -292361.84     -1829.9407    
   4885000   971.25714     -304843.7       0             -292339.62     -2829.1734    
   4886000   974.43458     -304858.5       0             -292313.52     -1737.27      
   4887000   980.81055     -304860.54      0             -292233.47     -2106.8289    
   4888000   953.24274     -304854.96      0             -292582.8      -2025.6988    
   4889000   974.23396     -304852.2       0             -292309.8      -1339.0806    
   4890000   997.35589     -304836.16      0             -291996.08     -2306.8538    
   4891000   970.90422     -304864.64      0             -292365.1      -2787.0485    
   4892000   962.31193     -304839.81      0             -292450.89     -2226.2219    
   4893000   971.97602     -304842.37      0             -292329.04     -2677.957     
   4894000   979.5601      -304851.29      0             -292240.31     -2207.267     
   4895000   961.28438     -304845.42      0             -292469.73     -1656.8862    
   4896000   962.57759     -304850.19      0             -292457.85     -2232.1112    
   4897000   971.63253     -304843.1       0             -292334.18     -1773.5343    
   4898000   994.27459     -304838.82      0             -292038.41     -1384.6636    
   4899000   978.31938     -304839.65      0             -292244.65     -2093.0219    
   4900000   958.54711     -304843.6       0             -292503.15     -515.20909    
   4901000   989.0177      -304852.79      0             -292120.06     -1899.6296    
   4902000   967.68603     -304841.27      0             -292383.17     -1381.7841    
   4903000   963.26503     -304860.88      0             -292459.69     -1778.7168    
   4904000   982.5206      -304850.49      0             -292201.4      -2036.2548    
   4905000   960.10416     -304846.01      0             -292485.52     -1031.3525    
   4906000   992.46947     -304858.36      0             -292081.19     -2031.9143    
   4907000   971.11828     -304850.5       0             -292348.2      -1567.2863    
   4908000   946.62961     -304851.76      0             -292664.73     -2433.9012    
   4909000   974.96318     -304852.96      0             -292301.17     -1849.8206    
   4910000   989.85582     -304841.68      0             -292098.16     -2004.0982    
   4911000   959.13556     -304858.41      0             -292510.39     -2147.4565    
   4912000   952.98793     -304840.73      0             -292571.85     -2450.2109    
   4913000   980.18875     -304837.48      0             -292218.41     -2490.3439    
   4914000   988.06935     -304846.61      0             -292126.09     -1369.735     
   4915000   963.78525     -304843.03      0             -292435.15     -1964.0869    
   4916000   986.72628     -304855.49      0             -292152.26     -2617.1583    
   4917000   975.43121     -304848.43      0             -292290.61     -2349.606     
   4918000   969.42995     -304859.87      0             -292379.31     -1867.7476    
   4919000   968.79594     -304852.43      0             -292380.03     -1730.8625    
   4920000   955.81418     -304861.31      0             -292556.04     -1969.2611    
   4921000   976.23453     -304857.79      0             -292289.63     -1438.4202    
   4922000   993.94295     -304850.4       0             -292054.26     -1821.8813    
   4923000   961.22157     -304843.14      0             -292468.26     -1843.9143    
   4924000   972.97273     -304845.71      0             -292319.54     -1928.3226    
   4925000   996.67425     -304838.26      0             -292006.96     -2226.9546    
   4926000   983.87744     -304844.11      0             -292177.55     -1711.6824    
   4927000   981.44354     -304848.05      0             -292212.83     -1186.5726    
   4928000   957.92849     -304845.46      0             -292512.98     -1456.2935    
   4929000   965.97071     -304847.06      0             -292411.03     -2057.2762    
   4930000   955.00485     -304857.27      0             -292562.42     -2134.9923    
   4931000   983.49446     -304856.17      0             -292194.54     -1901.7       
   4932000   984.68122     -304845.63      0             -292168.72     -1811.1067    
   4933000   990.74333     -304847.79      0             -292092.84     -1261.603     
   4934000   971.13418     -304851.85      0             -292349.35     -1834.8501    
   4935000   960.05065     -304848.71      0             -292488.9      -1402.6756    
   4936000   971.48872     -304870.61      0             -292363.55     -1975.2887    
   4937000   974.52873     -304863.19      0             -292316.99     -1649.3841    
   4938000   978.47823     -304857.09      0             -292260.04     -2137.9135    
   4939000   985.98526     -304858.33      0             -292164.64     -2545.2607    
   4940000   963.34367     -304853.75      0             -292451.55     -2050.1072    
   4941000   976.41563     -304860.21      0             -292289.72     -1984.187     
   4942000   984.72303     -304861.77      0             -292184.33     -1503.2446    
   4943000   971.59131     -304848.56      0             -292340.18     -2728.4564    
   4944000   966.46108     -304867.06      0             -292424.72     -1460.884     
   4945000   984.017       -304859.94      0             -292191.59     -1632.9637    
   4946000   983.97983     -304838.27      0             -292170.39     -2000.4155    
   4947000   970.63449     -304856.63      0             -292360.57     -2055.8362    
   4948000   958.09102     -304849.72      0             -292515.15     -2383.4589    
   4949000   981.1202      -304856.89      0             -292225.83     -1262.054     
   4950000   983.10195     -304852.6       0             -292196.03     -1889.5334    
   4951000   971.87012     -304856.79      0             -292344.81     -2442.6377    
   4952000   964.11773     -304862.43      0             -292450.26     -2150.9731    
   4953000   991.88436     -304859.04      0             -292089.4      -1253.3091    
   4954000   984.45193     -304871.08      0             -292197.13     -1618.9053    
   4955000   987.74479     -304853.64      0             -292137.29     -1261.1376    
   4956000   955.01922     -304861.53      0             -292566.5      -2546.9725    
   4957000   981.39035     -304857.77      0             -292223.23     -2134.9208    
   4958000   998.1403      -304859.42      0             -292009.25     -1737.6504    
   4959000   969.69408     -304857.56      0             -292373.6      -2257.8984    
   4960000   969.88031     -304853.68      0             -292367.33     -2447.754     
   4961000   967.75114     -304853.57      0             -292394.62     -1954.4819    
   4962000   967.48038     -304865.5       0             -292410.04     -1967.0657    
   4963000   978.10821     -304860.88      0             -292268.6      -1969.3001    
   4964000   966.87246     -304848.92      0             -292401.29     -1411.5457    
   4965000   956.55177     -304863.54      0             -292548.77     -2705.2962    
   4966000   982.44615     -304860.56      0             -292212.43     -1869.4538    
   4967000   963.94985     -304860.12      0             -292450.12     -2183.5392    
   4968000   978.1375      -304851.22      0             -292258.56     -1521.8389    
   4969000   986.46077     -304865.53      0             -292165.71     -1487.7503    
   4970000   980.32268     -304870.36      0             -292249.57     -1709.7986    
   4971000   961.84914     -304863.53      0             -292480.57     -2083.213     
   4972000   978.66327     -304866.31      0             -292266.89     -2388.487     
   4973000   981.9732      -304873.75      0             -292231.71     -2596.7627    
   4974000   966.30926     -304853.82      0             -292413.44     -2030.0875    
   4975000   953.23704     -304874.87      0             -292602.78     -1723.0226    
   4976000   980.69253     -304853.57      0             -292228.02     -2315.9588    
   4977000   998.10539     -304853.88      0             -292004.15     -2375.4454    
   4978000   967.27753     -304861.54      0             -292408.7      -2252.7787    
   4979000   971.03344     -304861.51      0             -292360.31     -2340.5332    
   4980000   997.52777     -304859.96      0             -292017.67     -1661.1737    
   4981000   961.80554     -304852.63      0             -292470.23     -2160.1583    
   4982000   978.29231     -304864.26      0             -292269.61     -2296.327     
   4983000   976.98001     -304865.83      0             -292288.07     -2527.4492    
   4984000   964.57143     -304853.57      0             -292435.56     -2348.3893    
   4985000   1002.9728     -304855.8       0             -291943.41     -1764.193     
   4986000   976.49375     -304867.55      0             -292296.05     -1778.7608    
   4987000   964.16638     -304856.85      0             -292444.05     -1353.6575    
   4988000   967.89535     -304856.35      0             -292395.55     -1781.2298    
   4989000   982.97658     -304864.82      0             -292209.86     -1593.387     
   4990000   989.99159     -304854.12      0             -292108.85     -1712.8232    
   4991000   977.56095     -304852.73      0             -292267.5      -2273.4475    
   4992000   945.87381     -304872.96      0             -292695.67     -2211.2748    
   4993000   970.64242     -304874         0             -292377.83     -1354.5032    
   4994000   970.48969     -304859.74      0             -292365.55     -1560.7978    
   4995000   979.1444      -304860.87      0             -292255.25     -2049.3042    
   4996000   971.86619     -304858.84      0             -292346.92     -1656.1141    
   4997000   949.24062     -304860.97      0             -292640.33     -2508.7398    
   4998000   976.75945     -304866.84      0             -292291.92     -1830.0528    
   4999000   986.08655     -304858.54      0             -292163.55     -2007.467     
   5000000   984.85815     -304854.64      0             -292175.45     -1258.7949    
   5001000   966.9866      -304864.62      0             -292415.52     -1392.5621    
   5002000   970.19514     -304849.43      0             -292359.02     -1367.5791    
   5003000   997.99743     -304855.81      0             -292007.48     -2295.4457    
   5003013   997.04911     -304863.2       0             -292027.07     -1500.9837    
Loop time of 555542 on 20 procs for 5000000 steps with 4320 atoms

Performance: 0.389 ns/day, 61.727 hours/ns, 9.000 timesteps/s, 38.881 katom-step/s
101.1% CPU use with 1 MPI tasks x 20 OpenMP threads

MPI task timing breakdown:
Section |  min time  |  avg time  |  max time  |%varavg| %total
---------------------------------------------------------------
Pair    | 5.464e+05  | 5.464e+05  | 5.464e+05  |   0.0 | 98.35
Neigh   | 1812.2     | 1812.2     | 1812.2     |   0.0 |  0.33
Comm    | 163.03     | 163.03     | 163.03     |   0.0 |  0.03
Output  | 8.4721     | 8.4721     | 8.4721     |   0.0 |  0.00
Modify  | 6966.3     | 6966.3     | 6966.3     |   0.0 |  1.25
Other   |            | 190.4      |            |       |  0.03

Nlocal:           4320 ave        4320 max        4320 min
Histogram: 1 0 0 0 0 0 0 0 0 0
Nghost:           6008 ave        6008 max        6008 min
Histogram: 1 0 0 0 0 0 0 0 0 0
Neighs:         724840 ave      724840 max      724840 min
Histogram: 1 0 0 0 0 0 0 0 0 0

Total # of neighbors = 724840
Ave neighs/atom = 167.78704
Neighbor list builds = 67227
Dangerous builds = 0
Total wall time: 154:23:11
